# LAMMPS data file for W2B5_P63/mmc polymorph
4 atoms
2 atom types
0.0 3.0171 xlo xhi
0.0 3.0171 ylo yhi
0.0 15.7082 zlo zhi
0.0 0.0 0.0 xy xz yz

Masses

1 183.84 #W
2 10.81  #B

Atoms # atomic

1 1 0.0 0.0 6.2373269130999995
2 2 0.0 0.0 3.9268975
3 2 1.00561566105 2.01123433895 4.7528025822
4 2 1.00561566105 2.01123433895 7.8107562033999995