 # W B2.0 - B2 W
  
          12  atoms
           2  atom types
 
      0.000000000000       2.983100000000  xlo xhi
      0.000000000000       2.583440382029  ylo yhi
      0.000000000000      13.879000000000  zlo zhi
     -1.491550000000       0.000000000000       0.000000000000  xy xz yz
 
Masses
 
            1   10.81000000             # B
            2   183.84000000            # W
 
Atoms # charge
 
         1    1  -1.000000       -0.000149155000       1.722379702699      13.541740300000
         2    1  -1.000000       -0.000149155000       1.722379702699      10.409250000000
         3    1  -1.000000       -1.491550000000       2.583440382029       3.469750000000
         4    2   1.000000       -0.000149155000       1.722379702699       1.909611610000
         5    1  -1.000000        1.491400845000       0.861060679330       6.602240300000
         6    1  -1.000000        1.491400845000       0.861060679330       3.469750000000
         7    1  -1.000000        0.000000000000       0.000000000000      10.409250000000
         8    2   1.000000        1.491400845000       0.861060679330       8.849111610000
         9    1  -1.000000       -0.000149155000       1.722379702699       7.276759700000
        10    2   1.000000       -0.000149155000       1.722379702699       5.029888390000
        11    1  -1.000000        1.491550000000       0.861319023369       0.337259700000
        12    2   1.000000        1.491550000000       0.861319023369      11.969388390000
