 # File generated with Atomsk by lucasbarbosa on 2024-08-12 23:02:19
  
          14  atoms
           2  atom types
 
      0.000000000000       3.017100000000  xlo xhi
      0.000000000000       2.612885245758  ylo yhi
      0.000000000000      15.708200000000  zlo zhi
     -1.508550000000       0.000000000000       0.000000000000  xy xz yz
 
Masses
 
            1   183.84000000            # W
            2   10.81000000             # B
 
Atoms # atomic
 
         1    1        0.000000000000       0.000000000000       6.237569138000
         2    2        0.000000000000       0.000000000000       3.927050000000
         3    2       -0.000001508550       1.741924368134       4.752987156000
         4    2       -0.000001508550       1.741924368134       7.811059532000
         5    1        0.000000000000       0.000000000000       9.470630862000
         6    2        0.000000000000       0.000000000000      11.781150000000
         7    2        1.508551508550       0.870960877624      10.955212844000
         8    2        1.508551508550       0.870960877624       7.897140468000
         9    1        0.000000000000       0.000000000000      14.091669138000
        10    2        1.508551508550       0.870960877624      12.607087156000
        11    2        1.508551508550       0.870960877624      15.665159532000
        12    1        0.000000000000       0.000000000000       1.616530862000
        13    2       -0.000001508550       1.741924368134       3.101112844000
        14    2       -0.000001508550       1.741924368134       0.043040468000
