ITEM: TIMESTEP
0
ITEM: NUMBER OF ATOMS
280
ITEM: BOX BOUNDS xy xz yz pp pp pp
-3.0171000000000001e+00 6.0342000000000002e+00 -3.0171000000000001e+00
0.0000000000000000e+00 5.2257704915160001e+00 0.0000000000000000e+00
0.0000000000000000e+00 7.8540999999999997e+01 0.0000000000000000e+00
ITEM: ATOMS id type xs ys zs
12 1 0 0 0.020582
13 2 0.166667 0.333334 0.039484
14 2 0.166667 0.333334 0.000548
40 1 5.55112e-17 0.5 0.020582
41 2 0.166667 0.833334 0.039484
42 2 0.166667 0.833334 0.000548
55 2 0.666667 0.833334 0.039484
56 2 0.666667 0.833334 0.000548
26 1 0.5 0 0.020582
27 2 0.666667 0.333334 0.039484
28 2 0.666667 0.333334 0.000548
54 1 0.5 0.5 0.020582
1 1 0 0 0.079418
2 2 0 0 0.05
3 2 0.166667 0.333334 0.060516
29 1 5.55112e-17 0.5 0.079418
30 2 5.55112e-17 0.5 0.05
31 2 0.166667 0.833334 0.060516
45 2 0.666667 0.833334 0.060516
15 1 0.5 0 0.079418
16 2 0.5 0 0.05
17 2 0.666667 0.333334 0.060516
43 1 0.5 0.5 0.079418
44 2 0.5 0.5 0.05
4 2 0.166667 0.333334 0.099452
5 1 0 0 0.120582
32 2 0.166667 0.833334 0.099452
33 1 5.55112e-17 0.5 0.120582
35 2 0.333333 0.666666 0.139484
36 2 0.333333 0.666666 0.100548
46 2 0.666667 0.833334 0.099452
7 2 0.333333 0.166666 0.139484
8 2 0.333333 0.166666 0.100548
18 2 0.666667 0.333334 0.099452
19 1 0.5 0 0.120582
21 2 0.833333 0.166666 0.139484
22 2 0.833333 0.166666 0.100548
47 1 0.5 0.5 0.120582
49 2 0.833333 0.666666 0.139484
50 2 0.833333 0.666666 0.100548
6 2 0 0 0.15
9 1 0 0 0.179418
34 2 5.55112e-17 0.5 0.15
37 1 5.55112e-17 0.5 0.179418
38 2 0.333333 0.666666 0.160516
10 2 0.333333 0.166666 0.160516
20 2 0.5 0 0.15
23 1 0.5 0 0.179418
24 2 0.833333 0.166666 0.160516
48 2 0.5 0.5 0.15
51 1 0.5 0.5 0.179418
52 2 0.833333 0.666666 0.160516
68 1 0 0 0.220582
70 2 0.166667 0.333334 0.200548
39 2 0.333333 0.666666 0.199452
96 1 5.55112e-17 0.5 0.220582
98 2 0.166667 0.833334 0.200548
112 2 0.666667 0.833334 0.200548
11 2 0.333333 0.166666 0.199452
25 2 0.833333 0.166666 0.199452
82 1 0.5 0 0.220582
84 2 0.666667 0.333334 0.200548
53 2 0.833333 0.666666 0.199452
110 1 0.5 0.5 0.220582
57 1 0 0 0.279418
58 2 0 0 0.25
59 2 0.166667 0.333334 0.260516
69 2 0.166667 0.333334 0.239484
85 1 5.55112e-17 0.5 0.279418
86 2 5.55112e-17 0.5 0.25
87 2 0.166667 0.833334 0.260516
97 2 0.166667 0.833334 0.239484
101 2 0.666667 0.833334 0.260516
111 2 0.666667 0.833334 0.239484
71 1 0.5 0 0.279418
72 2 0.5 0 0.25
73 2 0.666667 0.333334 0.260516
83 2 0.666667 0.333334 0.239484
99 1 0.5 0.5 0.279418
100 2 0.5 0.5 0.25
60 2 0.166667 0.333334 0.299452
61 1 0 0 0.320582
88 2 0.166667 0.833334 0.299452
89 1 5.55112e-17 0.5 0.320582
92 2 0.333333 0.666666 0.300548
102 2 0.666667 0.833334 0.299452
64 2 0.333333 0.166666 0.300548
74 2 0.666667 0.333334 0.299452
75 1 0.5 0 0.320582
78 2 0.833333 0.166666 0.300548
103 1 0.5 0.5 0.320582
106 2 0.833333 0.666666 0.300548
62 2 0 0 0.35
65 1 0 0 0.379418
90 2 5.55112e-17 0.5 0.35
91 2 0.333333 0.666666 0.339484
93 1 5.55112e-17 0.5 0.379418
94 2 0.333333 0.666666 0.360516
63 2 0.333333 0.166666 0.339484
66 2 0.333333 0.166666 0.360516
76 2 0.5 0 0.35
77 2 0.833333 0.166666 0.339484
79 1 0.5 0 0.379418
80 2 0.833333 0.166666 0.360516
104 2 0.5 0.5 0.35
105 2 0.833333 0.666666 0.339484
107 1 0.5 0.5 0.379418
108 2 0.833333 0.666666 0.360516
124 1 0 0 0.420582
126 2 0.166667 0.333334 0.400548
95 2 0.333333 0.666666 0.399452
152 1 5.55112e-17 0.5 0.420582
154 2 0.166667 0.833334 0.400548
168 2 0.666667 0.833334 0.400548
67 2 0.333333 0.166666 0.399452
81 2 0.833333 0.166666 0.399452
138 1 0.5 0 0.420582
140 2 0.666667 0.333334 0.400548
109 2 0.833333 0.666666 0.399452
166 1 0.5 0.5 0.420582
114 2 0 0 0.45
115 2 0.166667 0.333334 0.460516
125 2 0.166667 0.333334 0.439484
142 2 5.55112e-17 0.5 0.45
143 2 0.166667 0.833334 0.460516
153 2 0.166667 0.833334 0.439484
157 2 0.666667 0.833334 0.460516
167 2 0.666667 0.833334 0.439484
128 2 0.5 0 0.45
129 2 0.666667 0.333334 0.460516
139 2 0.666667 0.333334 0.439484
156 2 0.5 0.5 0.45
113 1 0 0 0.479418
116 2 0.166667 0.333334 0.499452
117 1 0 0 0.520582
141 1 5.55112e-17 0.5 0.479418
144 2 0.166667 0.833334 0.499452
145 1 5.55112e-17 0.5 0.520582
148 2 0.333333 0.666666 0.500548
158 2 0.666667 0.833334 0.499452
120 2 0.333333 0.166666 0.500548
127 1 0.5 0 0.479418
130 2 0.666667 0.333334 0.499452
131 1 0.5 0 0.520582
134 2 0.833333 0.166666 0.500548
155 1 0.5 0.5 0.479418
159 1 0.5 0.5 0.520582
162 2 0.833333 0.666666 0.500548
118 2 0 0 0.55
146 2 5.55112e-17 0.5 0.55
147 2 0.333333 0.666666 0.539484
150 2 0.333333 0.666666 0.560516
119 2 0.333333 0.166666 0.539484
122 2 0.333333 0.166666 0.560516
132 2 0.5 0 0.55
133 2 0.833333 0.166666 0.539484
136 2 0.833333 0.166666 0.560516
160 2 0.5 0.5 0.55
161 2 0.833333 0.666666 0.539484
164 2 0.833333 0.666666 0.560516
121 1 0 0 0.579418
182 2 0.166667 0.333334 0.600548
149 1 5.55112e-17 0.5 0.579418
151 2 0.333333 0.666666 0.599452
210 2 0.166667 0.833334 0.600548
224 2 0.666667 0.833334 0.600548
123 2 0.333333 0.166666 0.599452
135 1 0.5 0 0.579418
137 2 0.833333 0.166666 0.599452
196 2 0.666667 0.333334 0.600548
163 1 0.5 0.5 0.579418
165 2 0.833333 0.666666 0.599452
170 2 0 0 0.65
171 2 0.166667 0.333334 0.660516
180 1 0 0 0.620582
181 2 0.166667 0.333334 0.639484
198 2 5.55112e-17 0.5 0.65
199 2 0.166667 0.833334 0.660516
208 1 5.55112e-17 0.5 0.620582
209 2 0.166667 0.833334 0.639484
213 2 0.666667 0.833334 0.660516
223 2 0.666667 0.833334 0.639484
184 2 0.5 0 0.65
185 2 0.666667 0.333334 0.660516
194 1 0.5 0 0.620582
195 2 0.666667 0.333334 0.639484
212 2 0.5 0.5 0.65
222 1 0.5 0.5 0.620582
169 1 0 0 0.679418
172 2 0.166667 0.333334 0.699452
197 1 5.55112e-17 0.5 0.679418
200 2 0.166667 0.833334 0.699452
204 2 0.333333 0.666666 0.700548
214 2 0.666667 0.833334 0.699452
176 2 0.333333 0.166666 0.700548
183 1 0.5 0 0.679418
186 2 0.666667 0.333334 0.699452
190 2 0.833333 0.166666 0.700548
211 1 0.5 0.5 0.679418
218 2 0.833333 0.666666 0.700548
173 1 0 0 0.720582
174 2 0 0 0.75
201 1 5.55112e-17 0.5 0.720582
202 2 5.55112e-17 0.5 0.75
203 2 0.333333 0.666666 0.739484
206 2 0.333333 0.666666 0.760516
175 2 0.333333 0.166666 0.739484
178 2 0.333333 0.166666 0.760516
187 1 0.5 0 0.720582
188 2 0.5 0 0.75
189 2 0.833333 0.166666 0.739484
192 2 0.833333 0.166666 0.760516
215 1 0.5 0.5 0.720582
216 2 0.5 0.5 0.75
217 2 0.833333 0.666666 0.739484
220 2 0.833333 0.666666 0.760516
177 1 0 0 0.779418
238 2 0.166667 0.333334 0.800548
205 1 5.55112e-17 0.5 0.779418
207 2 0.333333 0.666666 0.799452
266 2 0.166667 0.833334 0.800548
280 2 0.666667 0.833334 0.800548
179 2 0.333333 0.166666 0.799452
191 1 0.5 0 0.779418
193 2 0.833333 0.166666 0.799452
252 2 0.666667 0.333334 0.800548
219 1 0.5 0.5 0.779418
221 2 0.833333 0.666666 0.799452
226 2 0 0 0.85
236 1 0 0 0.820582
237 2 0.166667 0.333334 0.839484
254 2 5.55112e-17 0.5 0.85
264 1 5.55112e-17 0.5 0.820582
265 2 0.166667 0.833334 0.839484
279 2 0.666667 0.833334 0.839484
240 2 0.5 0 0.85
250 1 0.5 0 0.820582
251 2 0.666667 0.333334 0.839484
268 2 0.5 0.5 0.85
278 1 0.5 0.5 0.820582
225 1 0 0 0.879418
227 2 0.166667 0.333334 0.860516
228 2 0.166667 0.333334 0.899452
253 1 5.55112e-17 0.5 0.879418
255 2 0.166667 0.833334 0.860516
256 2 0.166667 0.833334 0.899452
260 2 0.333333 0.666666 0.900548
269 2 0.666667 0.833334 0.860516
270 2 0.666667 0.833334 0.899452
232 2 0.333333 0.166666 0.900548
239 1 0.5 0 0.879418
241 2 0.666667 0.333334 0.860516
242 2 0.666667 0.333334 0.899452
246 2 0.833333 0.166666 0.900548
267 1 0.5 0.5 0.879418
274 2 0.833333 0.666666 0.900548
229 1 0 0 0.920582
230 2 0 0 0.95
257 1 5.55112e-17 0.5 0.920582
258 2 5.55112e-17 0.5 0.95
259 2 0.333333 0.666666 0.939484
231 2 0.333333 0.166666 0.939484
243 1 0.5 0 0.920582
244 2 0.5 0 0.95
245 2 0.833333 0.166666 0.939484
271 1 0.5 0.5 0.920582
272 2 0.5 0.5 0.95
273 2 0.833333 0.666666 0.939484
233 1 0 0 0.979418
261 1 5.55112e-17 0.5 0.979418
262 2 0.333333 0.666666 0.960516
263 2 0.333333 0.666666 0.999452
234 2 0.333333 0.166666 0.960516
235 2 0.333333 0.166666 0.999452
247 1 0.5 0 0.979418
248 2 0.833333 0.166666 0.960516
249 2 0.833333 0.166666 0.999452
275 1 0.5 0.5 0.979418
276 2 0.833333 0.666666 0.960516
277 2 0.833333 0.666666 0.999452
ITEM: TIMESTEP
10
ITEM: NUMBER OF ATOMS
280
ITEM: BOX BOUNDS xy xz yz pp pp pp
-3.0588487089530423e+00 6.0550743611242659e+00 -3.0379743478287762e+00
-1.8077715507151770e-02 5.2438482070231531e+00 0.0000000000000000e+00
-3.9270499999999992e-01 7.8933705000000003e+01 0.0000000000000000e+00
ITEM: ATOMS id type xs ys zs
12 1 -3.37593e-12 3.3555e-12 0.020582
13 2 0.166667 0.333333 0.0394838
14 2 0.166667 0.333333 0.000548
40 1 -3.37591e-12 0.5 0.020582
41 2 0.166667 0.833333 0.0394838
42 2 0.166667 0.833333 0.000548
55 2 0.666667 0.833333 0.0394838
56 2 0.666667 0.833333 0.000548
26 1 0.5 3.3555e-12 0.020582
27 2 0.666667 0.333333 0.0394838
28 2 0.666667 0.333333 0.000548
54 1 0.5 0.5 0.020582
1 1 -3.37593e-12 3.3555e-12 0.079418
2 2 -1.06313e-11 1.05914e-11 0.05
3 2 0.166667 0.333333 0.0605162
29 1 -3.37591e-12 0.5 0.079418
30 2 -1.06313e-11 0.5 0.05
31 2 0.166667 0.833333 0.0605162
45 2 0.666667 0.833333 0.0605162
15 1 0.5 3.3555e-12 0.079418
16 2 0.5 1.05914e-11 0.05
17 2 0.666667 0.333333 0.0605162
43 1 0.5 0.5 0.079418
44 2 0.5 0.5 0.05
4 2 0.166667 0.333333 0.099452
5 1 3.37593e-12 -3.3555e-12 0.120582
32 2 0.166667 0.833333 0.099452
33 1 3.37591e-12 0.5 0.120582
35 2 0.333333 0.666667 0.139484
36 2 0.333333 0.666667 0.100548
46 2 0.666667 0.833333 0.099452
7 2 0.333333 0.166667 0.139484
8 2 0.333333 0.166667 0.100548
18 2 0.666667 0.333333 0.099452
19 1 0.5 -3.3555e-12 0.120582
21 2 0.833333 0.166667 0.139484
22 2 0.833333 0.166667 0.100548
47 1 0.5 0.5 0.120582
49 2 0.833333 0.666667 0.139484
50 2 0.833333 0.666667 0.100548
6 2 1.06313e-11 -1.05914e-11 0.15
9 1 3.37593e-12 -3.3555e-12 0.179418
34 2 1.06314e-11 0.5 0.15
37 1 3.37591e-12 0.5 0.179418
38 2 0.333333 0.666667 0.160516
10 2 0.333333 0.166667 0.160516
20 2 0.5 -1.05914e-11 0.15
23 1 0.5 -3.3555e-12 0.179418
24 2 0.833333 0.166667 0.160516
48 2 0.5 0.5 0.15
51 1 0.5 0.5 0.179418
52 2 0.833333 0.666667 0.160516
68 1 -3.37593e-12 3.3555e-12 0.220582
70 2 0.166667 0.333333 0.200548
39 2 0.333333 0.666667 0.199452
96 1 -3.37591e-12 0.5 0.220582
98 2 0.166667 0.833333 0.200548
112 2 0.666667 0.833333 0.200548
11 2 0.333333 0.166667 0.199452
25 2 0.833333 0.166667 0.199452
82 1 0.5 3.3555e-12 0.220582
84 2 0.666667 0.333333 0.200548
53 2 0.833333 0.666667 0.199452
110 1 0.5 0.5 0.220582
57 1 -3.37593e-12 3.3555e-12 0.279418
58 2 -1.06313e-11 1.05914e-11 0.25
59 2 0.166667 0.333333 0.260516
69 2 0.166667 0.333333 0.239484
85 1 -3.37591e-12 0.5 0.279418
86 2 -1.06313e-11 0.5 0.25
87 2 0.166667 0.833333 0.260516
97 2 0.166667 0.833333 0.239484
101 2 0.666667 0.833333 0.260516
111 2 0.666667 0.833333 0.239484
71 1 0.5 3.3555e-12 0.279418
72 2 0.5 1.05914e-11 0.25
73 2 0.666667 0.333333 0.260516
83 2 0.666667 0.333333 0.239484
99 1 0.5 0.5 0.279418
100 2 0.5 0.5 0.25
60 2 0.166667 0.333333 0.299452
61 1 3.37593e-12 -3.3555e-12 0.320582
88 2 0.166667 0.833333 0.299452
89 1 3.37591e-12 0.5 0.320582
92 2 0.333333 0.666667 0.300548
102 2 0.666667 0.833333 0.299452
64 2 0.333333 0.166667 0.300548
74 2 0.666667 0.333333 0.299452
75 1 0.5 -3.3555e-12 0.320582
78 2 0.833333 0.166667 0.300548
103 1 0.5 0.5 0.320582
106 2 0.833333 0.666667 0.300548
62 2 1.06313e-11 -1.05914e-11 0.35
65 1 3.37593e-12 -3.3555e-12 0.379418
90 2 1.06314e-11 0.5 0.35
91 2 0.333333 0.666667 0.339484
93 1 3.37591e-12 0.5 0.379418
94 2 0.333333 0.666667 0.360516
63 2 0.333333 0.166667 0.339484
66 2 0.333333 0.166667 0.360516
76 2 0.5 -1.05914e-11 0.35
77 2 0.833333 0.166667 0.339484
79 1 0.5 -3.3555e-12 0.379418
80 2 0.833333 0.166667 0.360516
104 2 0.5 0.5 0.35
105 2 0.833333 0.666667 0.339484
107 1 0.5 0.5 0.379418
108 2 0.833333 0.666667 0.360516
124 1 -3.37593e-12 3.3555e-12 0.420582
126 2 0.166667 0.333333 0.400548
95 2 0.333333 0.666667 0.399452
152 1 -3.37591e-12 0.5 0.420582
154 2 0.166667 0.833333 0.400548
168 2 0.666667 0.833333 0.400548
67 2 0.333333 0.166667 0.399452
81 2 0.833333 0.166667 0.399452
138 1 0.5 3.3555e-12 0.420582
140 2 0.666667 0.333333 0.400548
109 2 0.833333 0.666667 0.399452
166 1 0.5 0.5 0.420582
114 2 -1.06313e-11 1.05914e-11 0.45
115 2 0.166667 0.333333 0.460516
125 2 0.166667 0.333333 0.439484
142 2 -1.06313e-11 0.5 0.45
143 2 0.166667 0.833333 0.460516
153 2 0.166667 0.833333 0.439484
157 2 0.666667 0.833333 0.460516
167 2 0.666667 0.833333 0.439484
128 2 0.5 1.05914e-11 0.45
129 2 0.666667 0.333333 0.460516
139 2 0.666667 0.333333 0.439484
156 2 0.5 0.5 0.45
113 1 -3.37593e-12 3.3555e-12 0.479418
116 2 0.166667 0.333333 0.499452
117 1 3.37593e-12 -3.3555e-12 0.520582
141 1 -3.37591e-12 0.5 0.479418
144 2 0.166667 0.833333 0.499452
145 1 3.37591e-12 0.5 0.520582
148 2 0.333333 0.666667 0.500548
158 2 0.666667 0.833333 0.499452
120 2 0.333333 0.166667 0.500548
127 1 0.5 3.3555e-12 0.479418
130 2 0.666667 0.333333 0.499452
131 1 0.5 -3.3555e-12 0.520582
134 2 0.833333 0.166667 0.500548
155 1 0.5 0.5 0.479418
159 1 0.5 0.5 0.520582
162 2 0.833333 0.666667 0.500548
118 2 1.06313e-11 -1.05914e-11 0.55
146 2 1.06314e-11 0.5 0.55
147 2 0.333333 0.666667 0.539484
150 2 0.333333 0.666667 0.560516
119 2 0.333333 0.166667 0.539484
122 2 0.333333 0.166667 0.560516
132 2 0.5 -1.05914e-11 0.55
133 2 0.833333 0.166667 0.539484
136 2 0.833333 0.166667 0.560516
160 2 0.5 0.5 0.55
161 2 0.833333 0.666667 0.539484
164 2 0.833333 0.666667 0.560516
121 1 3.37593e-12 -3.3555e-12 0.579418
182 2 0.166667 0.333333 0.600548
149 1 3.37591e-12 0.5 0.579418
151 2 0.333333 0.666667 0.599452
210 2 0.166667 0.833333 0.600548
224 2 0.666667 0.833333 0.600548
123 2 0.333333 0.166667 0.599452
135 1 0.5 -3.3555e-12 0.579418
137 2 0.833333 0.166667 0.599452
196 2 0.666667 0.333333 0.600548
163 1 0.5 0.5 0.579418
165 2 0.833333 0.666667 0.599452
170 2 -1.06313e-11 1.05914e-11 0.65
171 2 0.166667 0.333333 0.660516
180 1 -3.37593e-12 3.3555e-12 0.620582
181 2 0.166667 0.333333 0.639484
198 2 -1.06313e-11 0.5 0.65
199 2 0.166667 0.833333 0.660516
208 1 -3.37591e-12 0.5 0.620582
209 2 0.166667 0.833333 0.639484
213 2 0.666667 0.833333 0.660516
223 2 0.666667 0.833333 0.639484
184 2 0.5 1.05914e-11 0.65
185 2 0.666667 0.333333 0.660516
194 1 0.5 3.3555e-12 0.620582
195 2 0.666667 0.333333 0.639484
212 2 0.5 0.5 0.65
222 1 0.5 0.5 0.620582
169 1 -3.37593e-12 3.3555e-12 0.679418
172 2 0.166667 0.333333 0.699452
197 1 -3.37591e-12 0.5 0.679418
200 2 0.166667 0.833333 0.699452
204 2 0.333333 0.666667 0.700548
214 2 0.666667 0.833333 0.699452
176 2 0.333333 0.166667 0.700548
183 1 0.5 3.3555e-12 0.679418
186 2 0.666667 0.333333 0.699452
190 2 0.833333 0.166667 0.700548
211 1 0.5 0.5 0.679418
218 2 0.833333 0.666667 0.700548
173 1 3.37593e-12 -3.3555e-12 0.720582
174 2 1.06313e-11 -1.05914e-11 0.75
201 1 3.37591e-12 0.5 0.720582
202 2 1.06314e-11 0.5 0.75
203 2 0.333333 0.666667 0.739484
206 2 0.333333 0.666667 0.760516
175 2 0.333333 0.166667 0.739484
178 2 0.333333 0.166667 0.760516
187 1 0.5 -3.3555e-12 0.720582
188 2 0.5 -1.05914e-11 0.75
189 2 0.833333 0.166667 0.739484
192 2 0.833333 0.166667 0.760516
215 1 0.5 0.5 0.720582
216 2 0.5 0.5 0.75
217 2 0.833333 0.666667 0.739484
220 2 0.833333 0.666667 0.760516
177 1 3.37593e-12 -3.3555e-12 0.779418
238 2 0.166667 0.333333 0.800548
205 1 3.37591e-12 0.5 0.779418
207 2 0.333333 0.666667 0.799452
266 2 0.166667 0.833333 0.800548
280 2 0.666667 0.833333 0.800548
179 2 0.333333 0.166667 0.799452
191 1 0.5 -3.3555e-12 0.779418
193 2 0.833333 0.166667 0.799452
252 2 0.666667 0.333333 0.800548
219 1 0.5 0.5 0.779418
221 2 0.833333 0.666667 0.799452
226 2 -1.06313e-11 1.05914e-11 0.85
236 1 -3.37593e-12 3.3555e-12 0.820582
237 2 0.166667 0.333333 0.839484
254 2 -1.06313e-11 0.5 0.85
264 1 -3.37591e-12 0.5 0.820582
265 2 0.166667 0.833333 0.839484
279 2 0.666667 0.833333 0.839484
240 2 0.5 1.05914e-11 0.85
250 1 0.5 3.3555e-12 0.820582
251 2 0.666667 0.333333 0.839484
268 2 0.5 0.5 0.85
278 1 0.5 0.5 0.820582
225 1 -3.37593e-12 3.3555e-12 0.879418
227 2 0.166667 0.333333 0.860516
228 2 0.166667 0.333333 0.899452
253 1 -3.37591e-12 0.5 0.879418
255 2 0.166667 0.833333 0.860516
256 2 0.166667 0.833333 0.899452
260 2 0.333333 0.666667 0.900548
269 2 0.666667 0.833333 0.860516
270 2 0.666667 0.833333 0.899452
232 2 0.333333 0.166667 0.900548
239 1 0.5 3.3555e-12 0.879418
241 2 0.666667 0.333333 0.860516
242 2 0.666667 0.333333 0.899452
246 2 0.833333 0.166667 0.900548
267 1 0.5 0.5 0.879418
274 2 0.833333 0.666667 0.900548
229 1 3.37593e-12 -3.3555e-12 0.920582
230 2 1.06313e-11 -1.05914e-11 0.95
257 1 3.37591e-12 0.5 0.920582
258 2 1.06314e-11 0.5 0.95
259 2 0.333333 0.666667 0.939484
231 2 0.333333 0.166667 0.939484
243 1 0.5 -3.3555e-12 0.920582
244 2 0.5 -1.05914e-11 0.95
245 2 0.833333 0.166667 0.939484
271 1 0.5 0.5 0.920582
272 2 0.5 0.5 0.95
273 2 0.833333 0.666667 0.939484
233 1 3.37593e-12 -3.3555e-12 0.979418
261 1 3.37591e-12 0.5 0.979418
262 2 0.333333 0.666667 0.960516
263 2 0.333333 0.666667 0.999452
234 2 0.333333 0.166667 0.960516
235 2 0.333333 0.166667 0.999452
247 1 0.5 -3.3555e-12 0.979418
248 2 0.833333 0.166667 0.960516
249 2 0.833333 0.166667 0.999452
275 1 0.5 0.5 0.979418
276 2 0.833333 0.666667 0.960516
277 2 0.833333 0.666667 0.999452
ITEM: TIMESTEP
20
ITEM: NUMBER OF ATOMS
280
ITEM: BOX BOUNDS xy xz yz pp pp pp
-3.1007323738158319e+00 6.0760161999547435e+00 -3.0589161738610899e+00
-3.6213868852769983e-02 5.2619843603687704e+00 0.0000000000000000e+00
-7.8540999999999983e-01 7.9326410000000010e+01 0.0000000000000000e+00
ITEM: ATOMS id type xs ys zs
12 1 1 6.70683e-12 0.0205821
13 2 0.166667 0.333333 0.0394836
14 2 0.166667 0.333333 0.000547999
40 1 1 0.5 0.0205821
41 2 0.166667 0.833333 0.0394836
42 2 0.166667 0.833333 0.000547999
55 2 0.666667 0.833333 0.0394836
56 2 0.666667 0.833333 0.000547999
26 1 0.5 6.70683e-12 0.0205821
27 2 0.666667 0.333333 0.0394836
28 2 0.666667 0.333333 0.000547999
54 1 0.5 0.5 0.0205821
1 1 1 6.70683e-12 0.0794179
2 2 1 2.12514e-11 0.05
3 2 0.166667 0.333333 0.0605164
29 1 1 0.5 0.0794179
30 2 1 0.5 0.05
31 2 0.166667 0.833333 0.0605164
45 2 0.666667 0.833333 0.0605164
15 1 0.5 6.70683e-12 0.0794179
16 2 0.5 2.12514e-11 0.05
17 2 0.666667 0.333333 0.0605164
43 1 0.5 0.5 0.0794179
44 2 0.5 0.5 0.05
4 2 0.166667 0.333333 0.099452
5 1 6.79146e-12 1 0.120582
32 2 0.166667 0.833333 0.099452
33 1 6.79173e-12 0.5 0.120582
35 2 0.333333 0.666667 0.139484
36 2 0.333333 0.666667 0.100548
46 2 0.666667 0.833333 0.099452
7 2 0.333333 0.166667 0.139484
8 2 0.333333 0.166667 0.100548
18 2 0.666667 0.333333 0.099452
19 1 0.5 1 0.120582
21 2 0.833333 0.166667 0.139484
22 2 0.833333 0.166667 0.100548
47 1 0.5 0.5 0.120582
49 2 0.833333 0.666667 0.139484
50 2 0.833333 0.666667 0.100548
6 2 2.14183e-11 1 0.15
9 1 6.79146e-12 1 0.179418
34 2 2.14184e-11 0.5 0.15
37 1 6.79173e-12 0.5 0.179418
38 2 0.333333 0.666667 0.160516
10 2 0.333333 0.166667 0.160516
20 2 0.5 1 0.15
23 1 0.5 1 0.179418
24 2 0.833333 0.166667 0.160516
48 2 0.5 0.5 0.15
51 1 0.5 0.5 0.179418
52 2 0.833333 0.666667 0.160516
68 1 1 6.70683e-12 0.220582
70 2 0.166667 0.333333 0.200548
39 2 0.333333 0.666667 0.199452
96 1 1 0.5 0.220582
98 2 0.166667 0.833333 0.200548
112 2 0.666667 0.833333 0.200548
11 2 0.333333 0.166667 0.199452
25 2 0.833333 0.166667 0.199452
82 1 0.5 6.70683e-12 0.220582
84 2 0.666667 0.333333 0.200548
53 2 0.833333 0.666667 0.199452
110 1 0.5 0.5 0.220582
57 1 1 6.70683e-12 0.279418
58 2 1 2.12514e-11 0.25
59 2 0.166667 0.333333 0.260516
69 2 0.166667 0.333333 0.239484
85 1 1 0.5 0.279418
86 2 1 0.5 0.25
87 2 0.166667 0.833333 0.260516
97 2 0.166667 0.833333 0.239484
101 2 0.666667 0.833333 0.260516
111 2 0.666667 0.833333 0.239484
71 1 0.5 6.70683e-12 0.279418
72 2 0.5 2.12514e-11 0.25
73 2 0.666667 0.333333 0.260516
83 2 0.666667 0.333333 0.239484
99 1 0.5 0.5 0.279418
100 2 0.5 0.5 0.25
60 2 0.166667 0.333333 0.299452
61 1 6.79146e-12 1 0.320582
88 2 0.166667 0.833333 0.299452
89 1 6.79173e-12 0.5 0.320582
92 2 0.333333 0.666667 0.300548
102 2 0.666667 0.833333 0.299452
64 2 0.333333 0.166667 0.300548
74 2 0.666667 0.333333 0.299452
75 1 0.5 1 0.320582
78 2 0.833333 0.166667 0.300548
103 1 0.5 0.5 0.320582
106 2 0.833333 0.666667 0.300548
62 2 2.14183e-11 1 0.35
65 1 6.79146e-12 1 0.379418
90 2 2.14184e-11 0.5 0.35
91 2 0.333333 0.666667 0.339484
93 1 6.79173e-12 0.5 0.379418
94 2 0.333333 0.666667 0.360516
63 2 0.333333 0.166667 0.339484
66 2 0.333333 0.166667 0.360516
76 2 0.5 1 0.35
77 2 0.833333 0.166667 0.339484
79 1 0.5 1 0.379418
80 2 0.833333 0.166667 0.360516
104 2 0.5 0.5 0.35
105 2 0.833333 0.666667 0.339484
107 1 0.5 0.5 0.379418
108 2 0.833333 0.666667 0.360516
124 1 1 6.70683e-12 0.420582
126 2 0.166667 0.333333 0.400548
95 2 0.333333 0.666667 0.399452
152 1 1 0.5 0.420582
154 2 0.166667 0.833333 0.400548
168 2 0.666667 0.833333 0.400548
67 2 0.333333 0.166667 0.399452
81 2 0.833333 0.166667 0.399452
138 1 0.5 6.70683e-12 0.420582
140 2 0.666667 0.333333 0.400548
109 2 0.833333 0.666667 0.399452
166 1 0.5 0.5 0.420582
114 2 1 2.12514e-11 0.45
115 2 0.166667 0.333333 0.460516
125 2 0.166667 0.333333 0.439484
142 2 1 0.5 0.45
143 2 0.166667 0.833333 0.460516
153 2 0.166667 0.833333 0.439484
157 2 0.666667 0.833333 0.460516
167 2 0.666667 0.833333 0.439484
128 2 0.5 2.12514e-11 0.45
129 2 0.666667 0.333333 0.460516
139 2 0.666667 0.333333 0.439484
156 2 0.5 0.5 0.45
113 1 1 6.70683e-12 0.479418
116 2 0.166667 0.333333 0.499452
117 1 6.79146e-12 1 0.520582
141 1 1 0.5 0.479418
144 2 0.166667 0.833333 0.499452
145 1 6.79173e-12 0.5 0.520582
148 2 0.333333 0.666667 0.500548
158 2 0.666667 0.833333 0.499452
120 2 0.333333 0.166667 0.500548
127 1 0.5 6.70683e-12 0.479418
130 2 0.666667 0.333333 0.499452
131 1 0.5 1 0.520582
134 2 0.833333 0.166667 0.500548
155 1 0.5 0.5 0.479418
159 1 0.5 0.5 0.520582
162 2 0.833333 0.666667 0.500548
118 2 2.14183e-11 1 0.55
146 2 2.14184e-11 0.5 0.55
147 2 0.333333 0.666667 0.539484
150 2 0.333333 0.666667 0.560516
119 2 0.333333 0.166667 0.539484
122 2 0.333333 0.166667 0.560516
132 2 0.5 1 0.55
133 2 0.833333 0.166667 0.539484
136 2 0.833333 0.166667 0.560516
160 2 0.5 0.5 0.55
161 2 0.833333 0.666667 0.539484
164 2 0.833333 0.666667 0.560516
121 1 6.79146e-12 1 0.579418
182 2 0.166667 0.333333 0.600548
149 1 6.79173e-12 0.5 0.579418
151 2 0.333333 0.666667 0.599452
210 2 0.166667 0.833333 0.600548
224 2 0.666667 0.833333 0.600548
123 2 0.333333 0.166667 0.599452
135 1 0.5 1 0.579418
137 2 0.833333 0.166667 0.599452
196 2 0.666667 0.333333 0.600548
163 1 0.5 0.5 0.579418
165 2 0.833333 0.666667 0.599452
170 2 1 2.12514e-11 0.65
171 2 0.166667 0.333333 0.660516
180 1 1 6.70683e-12 0.620582
181 2 0.166667 0.333333 0.639484
198 2 1 0.5 0.65
199 2 0.166667 0.833333 0.660516
208 1 1 0.5 0.620582
209 2 0.166667 0.833333 0.639484
213 2 0.666667 0.833333 0.660516
223 2 0.666667 0.833333 0.639484
184 2 0.5 2.12514e-11 0.65
185 2 0.666667 0.333333 0.660516
194 1 0.5 6.70683e-12 0.620582
195 2 0.666667 0.333333 0.639484
212 2 0.5 0.5 0.65
222 1 0.5 0.5 0.620582
169 1 1 6.70683e-12 0.679418
172 2 0.166667 0.333333 0.699452
197 1 1 0.5 0.679418
200 2 0.166667 0.833333 0.699452
204 2 0.333333 0.666667 0.700548
214 2 0.666667 0.833333 0.699452
176 2 0.333333 0.166667 0.700548
183 1 0.5 6.70683e-12 0.679418
186 2 0.666667 0.333333 0.699452
190 2 0.833333 0.166667 0.700548
211 1 0.5 0.5 0.679418
218 2 0.833333 0.666667 0.700548
173 1 6.79146e-12 1 0.720582
174 2 2.14183e-11 1 0.75
201 1 6.79173e-12 0.5 0.720582
202 2 2.14184e-11 0.5 0.75
203 2 0.333333 0.666667 0.739484
206 2 0.333333 0.666667 0.760516
175 2 0.333333 0.166667 0.739484
178 2 0.333333 0.166667 0.760516
187 1 0.5 1 0.720582
188 2 0.5 1 0.75
189 2 0.833333 0.166667 0.739484
192 2 0.833333 0.166667 0.760516
215 1 0.5 0.5 0.720582
216 2 0.5 0.5 0.75
217 2 0.833333 0.666667 0.739484
220 2 0.833333 0.666667 0.760516
177 1 6.79146e-12 1 0.779418
238 2 0.166667 0.333333 0.800548
205 1 6.79173e-12 0.5 0.779418
207 2 0.333333 0.666667 0.799452
266 2 0.166667 0.833333 0.800548
280 2 0.666667 0.833333 0.800548
179 2 0.333333 0.166667 0.799452
191 1 0.5 1 0.779418
193 2 0.833333 0.166667 0.799452
252 2 0.666667 0.333333 0.800548
219 1 0.5 0.5 0.779418
221 2 0.833333 0.666667 0.799452
226 2 1 2.12514e-11 0.85
236 1 1 6.70683e-12 0.820582
237 2 0.166667 0.333333 0.839484
254 2 1 0.5 0.85
264 1 1 0.5 0.820582
265 2 0.166667 0.833333 0.839484
279 2 0.666667 0.833333 0.839484
240 2 0.5 2.12514e-11 0.85
250 1 0.5 6.70683e-12 0.820582
251 2 0.666667 0.333333 0.839484
268 2 0.5 0.5 0.85
278 1 0.5 0.5 0.820582
225 1 1 6.70683e-12 0.879418
227 2 0.166667 0.333333 0.860516
228 2 0.166667 0.333333 0.899452
253 1 1 0.5 0.879418
255 2 0.166667 0.833333 0.860516
256 2 0.166667 0.833333 0.899452
260 2 0.333333 0.666667 0.900548
269 2 0.666667 0.833333 0.860516
270 2 0.666667 0.833333 0.899452
232 2 0.333333 0.166667 0.900548
239 1 0.5 6.70683e-12 0.879418
241 2 0.666667 0.333333 0.860516
242 2 0.666667 0.333333 0.899452
246 2 0.833333 0.166667 0.900548
267 1 0.5 0.5 0.879418
274 2 0.833333 0.666667 0.900548
229 1 6.79146e-12 1 0.920582
230 2 2.14183e-11 1 0.95
257 1 6.79173e-12 0.5 0.920582
258 2 2.14184e-11 0.5 0.95
259 2 0.333333 0.666667 0.939484
231 2 0.333333 0.166667 0.939484
243 1 0.5 1 0.920582
244 2 0.5 1 0.95
245 2 0.833333 0.166667 0.939484
271 1 0.5 0.5 0.920582
272 2 0.5 0.5 0.95
273 2 0.833333 0.666667 0.939484
233 1 6.79146e-12 1 0.979418
261 1 6.79173e-12 0.5 0.979418
262 2 0.333333 0.666667 0.960516
263 2 0.333333 0.666667 0.999452
234 2 0.333333 0.166667 0.960516
235 2 0.333333 0.166667 0.999452
247 1 0.5 1 0.979418
248 2 0.833333 0.166667 0.960516
249 2 0.833333 0.166667 0.999452
275 1 0.5 0.5 0.979418
276 2 0.833333 0.666667 0.960516
277 2 0.833333 0.666667 0.999452
ITEM: TIMESTEP
30
ITEM: NUMBER OF ATOMS
280
ITEM: BOX BOUNDS xy xz yz pp pp pp
-3.1427504848541226e+00 6.0970252616216465e+00 -3.0799252232324772e+00
-5.4408239317752981e-02 5.2801787308337529e+00 0.0000000000000000e+00
-1.1781149999999998e+00 7.9719115000000016e+01 0.0000000000000000e+00
ITEM: ATOMS id type xs ys zs
12 1 1 1.00553e-11 0.0205821
13 2 0.166667 0.333333 0.0394834
14 2 0.166667 0.333333 0.000547999
40 1 1 0.5 0.0205821
41 2 0.166667 0.833333 0.0394834
42 2 0.166667 0.833333 0.000547999
55 2 0.666667 0.833333 0.0394834
56 2 0.666667 0.833333 0.000547999
26 1 0.5 1.00553e-11 0.0205821
27 2 0.666667 0.333333 0.0394834
28 2 0.666667 0.333333 0.000547999
54 1 0.5 0.5 0.0205821
1 1 1 1.00553e-11 0.0794179
2 2 1 3.19819e-11 0.05
3 2 0.166667 0.333333 0.0605166
29 1 1 0.5 0.0794179
30 2 1 0.5 0.05
31 2 0.166667 0.833333 0.0605166
45 2 0.666667 0.833333 0.0605166
15 1 0.5 1.00553e-11 0.0794179
16 2 0.5 3.19819e-11 0.05
17 2 0.666667 0.333333 0.0605166
43 1 0.5 0.5 0.0794179
44 2 0.5 0.5 0.05
4 2 0.166667 0.333333 0.099452
5 1 1.02457e-11 1 0.120582
32 2 0.166667 0.833333 0.099452
33 1 1.02459e-11 0.5 0.120582
35 2 0.333333 0.666667 0.139483
36 2 0.333333 0.666667 0.100548
46 2 0.666667 0.833333 0.099452
7 2 0.333333 0.166667 0.139483
8 2 0.333333 0.166667 0.100548
18 2 0.666667 0.333333 0.099452
19 1 0.5 1 0.120582
21 2 0.833333 0.166667 0.139483
22 2 0.833333 0.166667 0.100548
47 1 0.5 0.5 0.120582
49 2 0.833333 0.666667 0.139483
50 2 0.833333 0.666667 0.100548
6 2 3.23595e-11 1 0.15
9 1 1.02457e-11 1 0.179418
34 2 3.23594e-11 0.5 0.15
37 1 1.02459e-11 0.5 0.179418
38 2 0.333333 0.666667 0.160517
10 2 0.333333 0.166667 0.160517
20 2 0.5 1 0.15
23 1 0.5 1 0.179418
24 2 0.833333 0.166667 0.160517
48 2 0.5 0.5 0.15
51 1 0.5 0.5 0.179418
52 2 0.833333 0.666667 0.160517
68 1 1 1.00553e-11 0.220582
70 2 0.166667 0.333333 0.200548
39 2 0.333333 0.666667 0.199452
96 1 1 0.5 0.220582
98 2 0.166667 0.833333 0.200548
112 2 0.666667 0.833333 0.200548
11 2 0.333333 0.166667 0.199452
25 2 0.833333 0.166667 0.199452
82 1 0.5 1.00553e-11 0.220582
84 2 0.666667 0.333333 0.200548
53 2 0.833333 0.666667 0.199452
110 1 0.5 0.5 0.220582
57 1 1 1.00553e-11 0.279418
58 2 1 3.19819e-11 0.25
59 2 0.166667 0.333333 0.260517
69 2 0.166667 0.333333 0.239483
85 1 1 0.5 0.279418
86 2 1 0.5 0.25
87 2 0.166667 0.833333 0.260517
97 2 0.166667 0.833333 0.239483
101 2 0.666667 0.833333 0.260517
111 2 0.666667 0.833333 0.239483
71 1 0.5 1.00553e-11 0.279418
72 2 0.5 3.19819e-11 0.25
73 2 0.666667 0.333333 0.260517
83 2 0.666667 0.333333 0.239483
99 1 0.5 0.5 0.279418
100 2 0.5 0.5 0.25
60 2 0.166667 0.333333 0.299452
61 1 1.02457e-11 1 0.320582
88 2 0.166667 0.833333 0.299452
89 1 1.02459e-11 0.5 0.320582
92 2 0.333333 0.666667 0.300548
102 2 0.666667 0.833333 0.299452
64 2 0.333333 0.166667 0.300548
74 2 0.666667 0.333333 0.299452
75 1 0.5 1 0.320582
78 2 0.833333 0.166667 0.300548
103 1 0.5 0.5 0.320582
106 2 0.833333 0.666667 0.300548
62 2 3.23595e-11 1 0.35
65 1 1.02457e-11 1 0.379418
90 2 3.23594e-11 0.5 0.35
91 2 0.333333 0.666667 0.339483
93 1 1.02459e-11 0.5 0.379418
94 2 0.333333 0.666667 0.360517
63 2 0.333333 0.166667 0.339483
66 2 0.333333 0.166667 0.360517
76 2 0.5 1 0.35
77 2 0.833333 0.166667 0.339483
79 1 0.5 1 0.379418
80 2 0.833333 0.166667 0.360517
104 2 0.5 0.5 0.35
105 2 0.833333 0.666667 0.339483
107 1 0.5 0.5 0.379418
108 2 0.833333 0.666667 0.360517
124 1 1 1.00553e-11 0.420582
126 2 0.166667 0.333333 0.400548
95 2 0.333333 0.666667 0.399452
152 1 1 0.5 0.420582
154 2 0.166667 0.833333 0.400548
168 2 0.666667 0.833333 0.400548
67 2 0.333333 0.166667 0.399452
81 2 0.833333 0.166667 0.399452
138 1 0.5 1.00553e-11 0.420582
140 2 0.666667 0.333333 0.400548
109 2 0.833333 0.666667 0.399452
166 1 0.5 0.5 0.420582
114 2 1 3.19819e-11 0.45
115 2 0.166667 0.333333 0.460517
125 2 0.166667 0.333333 0.439483
142 2 1 0.5 0.45
143 2 0.166667 0.833333 0.460517
153 2 0.166667 0.833333 0.439483
157 2 0.666667 0.833333 0.460517
167 2 0.666667 0.833333 0.439483
128 2 0.5 3.19819e-11 0.45
129 2 0.666667 0.333333 0.460517
139 2 0.666667 0.333333 0.439483
156 2 0.5 0.5 0.45
113 1 1 1.00553e-11 0.479418
116 2 0.166667 0.333333 0.499452
117 1 1.02457e-11 1 0.520582
141 1 1 0.5 0.479418
144 2 0.166667 0.833333 0.499452