ITEM: TIMESTEP
690
ITEM: NUMBER OF ATOMS
112
ITEM: BOX BOUNDS xy xz yz pp pp pp
-5.4876168397908796e+00 7.2694624074317726e+00 -4.2523544323591631e+00
-1.0697680971031300e+00 6.2955385886189621e+00 0.0000000000000000e+00
-6.7917756770615068e+00 3.8208175677061313e+01 0.0000000000000000e+00
ITEM: ATOMS id type xs ys zs
14 2 0.166667 0.333333 -2.91855e-07
54 1 0.499999 0.499999 0.0527385
28 2 0.666667 0.333333 -2.75396e-07
26 1 0.5 6.9859e-07 0.0527385
12 1 1 6.62239e-07 0.0527384
40 1 -3.3207e-07 0.499999 0.0527385
42 2 0.166666 0.833333 -1.16362e-07
56 2 0.666666 0.833333 -1.41911e-07
13 2 0.166667 0.333333 0.10733
27 2 0.666666 0.333334 0.10733
16 2 0.499999 4.01843e-07 0.125
30 2 0.999999 0.5 0.125
2 2 0.999999 1.88871e-07 0.125
41 2 0.166667 0.833334 0.10733
44 2 0.5 0.5 0.125
55 2 0.666668 0.833334 0.10733
3 2 0.166668 0.333335 0.14267
17 2 0.666665 0.333333 0.14267
15 1 0.500001 5.27912e-07 0.197261
1 1 1 2.56086e-07 0.197262
29 1 -5.98808e-07 0.5 0.197261
31 2 0.166667 0.833335 0.14267
43 1 0.5 0.5 0.197261
45 2 0.666667 0.833333 0.14267
4 2 0.166666 0.333334 0.25
18 2 0.666666 0.333333 0.25
8 2 0.333334 0.166667 0.25
22 2 0.833333 0.166667 0.25
32 2 0.166668 0.833334 0.25
36 2 0.333333 0.666667 0.25
46 2 0.666667 0.833333 0.25
50 2 0.833332 0.666667 0.25
5 1 2.51003e-07 2.98745e-07 0.302738
47 1 0.499999 0.5 0.302738
7 2 0.333334 0.166666 0.35733
21 2 0.833334 0.166667 0.35733
33 1 1.49478e-07 0.500001 0.302738
19 1 0.5 1 0.302739
35 2 0.333332 0.666666 0.35733
49 2 0.833334 0.666666 0.35733
10 2 0.333334 0.166667 0.39267
6 2 1.37904e-06 2.92051e-07 0.375
48 2 0.5 0.499999 0.375
24 2 0.833333 0.166667 0.39267
34 2 4.876e-07 0.5 0.375
20 2 0.5 1 0.375
38 2 0.333334 0.666668 0.39267
52 2 0.833332 0.666666 0.39267
11 2 0.333333 0.166666 0.5
51 1 0.499999 0.5 0.447262
25 2 0.833334 0.166667 0.5
9 1 2.20409e-07 1 0.447261
37 1 1.07012e-06 0.5 0.447262
23 1 0.5 1 0.447262
39 2 0.333333 0.666667 0.5
53 2 0.833333 0.666667 0.5
70 2 0.166666 0.333333 0.5
84 2 0.666667 0.333334 0.5
82 1 0.500001 7.53531e-07 0.552738
96 1 -3.62489e-07 0.5 0.552739
98 2 0.166667 0.833334 0.5
110 1 0.5 0.5 0.552739
68 1 0.999999 0.999999 0.552739
112 2 0.666667 0.833333 0.5
86 2 3.39777e-07 0.499999 0.625
69 2 0.166666 0.333334 0.60733
83 2 0.666666 0.333334 0.60733
100 2 0.500001 0.499999 0.625
72 2 0.5 3.49964e-08 0.625
97 2 0.166668 0.833333 0.60733
111 2 0.666666 0.833334 0.60733
58 2 0.999998 0.999999 0.625
59 2 0.166667 0.333334 0.64267
73 2 0.666668 0.333334 0.64267
71 1 0.5 -7.54006e-07 0.697261
87 2 0.166667 0.833335 0.64267
101 2 0.666666 0.833334 0.64267
99 1 0.5 0.500001 0.697261
57 1 0.999999 1 0.697261
85 1 1 0.500001 0.697261
60 2 0.166666 0.333334 0.75
64 2 0.333333 0.166667 0.75
74 2 0.666666 0.333334 0.75
78 2 0.833334 0.166667 0.75
88 2 0.166667 0.833334 0.75
92 2 0.333333 0.666666 0.75
102 2 0.666667 0.833333 0.75
106 2 0.833333 0.666667 0.75
61 1 1.15062e-06 1.09434e-06 0.802738
63 2 0.333334 0.166667 0.85733
103 1 0.499999 0.499999 0.802738
77 2 0.833333 0.166667 0.85733
75 1 0.5 1 0.802738
91 2 0.333333 0.666666 0.85733
105 2 0.833333 0.666666 0.85733
89 1 0.999999 0.5 0.802738
66 2 0.333332 0.166667 0.89267
104 2 0.499999 0.5 0.875
76 2 0.500001 7.42926e-07 0.875
62 2 1 1.27162e-06 0.875
80 2 0.833334 0.166667 0.89267
90 2 1.36897e-06 0.500001 0.875
94 2 0.333333 0.666668 0.89267
108 2 0.833333 0.666666 0.89267
67 2 0.333333 0.166666 1
79 1 0.499999 -9.91e-07 0.947261
81 2 0.833333 0.166667 1
93 1 4.98679e-07 0.500001 0.947261
95 2 0.333333 0.666666 1
107 1 0.5 0.5 0.947261
65 1 0.999999 0.999999 0.947261
109 2 0.833333 0.666666 1
ITEM: TIMESTEP
700
ITEM: NUMBER OF ATOMS
112
ITEM: BOX BOUNDS xy xz yz pp pp pp
-5.4876168397908796e+00 7.2694624074317726e+00 -4.2523544323591631e+00
-1.0697680971031300e+00 6.2955385886189621e+00 0.0000000000000000e+00
-6.7917756770615068e+00 3.8208175677061313e+01 0.0000000000000000e+00
ITEM: ATOMS id type xs ys zs
14 2 0.166753 0.33283 -0.000558182
54 1 0.496827 0.493499 0.0527471
28 2 0.6673 0.333254 -0.000478874
26 1 0.504223 0.00665549 0.0527936
12 1 1.00165 0.00679561 0.0528534
40 1 -0.00281845 0.492798 0.0527754
42 2 0.166376 0.833876 0.000760898
56 2 0.666366 0.833099 0.000554348
13 2 0.166667 0.333333 0.107334
27 2 0.666666 0.333334 0.107334
16 2 0.500008 0.000577469 0.125226
30 2 0.999585 0.49935 0.124622
2 2 0.999839 0.000417155 0.125162
41 2 0.166667 0.833334 0.107334
44 2 0.500102 0.499865 0.124795
55 2 0.666668 0.833334 0.107334
3 2 0.166668 0.333335 0.142666
17 2 0.666665 0.333333 0.142666
15 1 0.503058 0.00277403 0.197289
1 1 0.99922 -0.000331086 0.19712
29 1 -0.00354184 0.49875 0.197198
31 2 0.166667 0.833335 0.142666
43 1 0.501218 0.49892 0.197195
45 2 0.666667 0.833333 0.142666
4 2 0.165887 0.332932 0.249793
18 2 0.666441 0.333614 0.250274
8 2 0.332704 0.166133 0.25007
22 2 0.834856 0.167285 0.25025
32 2 0.167082 0.833908 0.249724
36 2 0.332663 0.6661 0.249695
46 2 0.667438 0.833001 0.249905
50 2 0.832833 0.667258 0.250175
5 1 0.0008757 -0.000136943 0.302855
47 1 0.497858 0.500449 0.302774
7 2 0.333334 0.166666 0.357334
21 2 0.833334 0.166667 0.357334
33 1 0.00237649 0.502307 0.302773
19 1 0.498844 0.997502 0.302691
35 2 0.333332 0.666666 0.357334
49 2 0.833334 0.666666 0.357334
10 2 0.333334 0.166667 0.392666
6 2 0.000799057 0.00027878 0.374844
48 2 0.499912 0.499396 0.375273
24 2 0.833333 0.166667 0.392666
34 2 0.000615195 0.500154 0.375481
20 2 0.499648 0.99946 0.375132
38 2 0.333334 0.666668 0.392666
52 2 0.833332 0.666666 0.392666
11 2 0.333429 0.166471 0.500153
51 1 0.493482 0.497666 0.447153
25 2 0.833425 0.167118 0.499676
9 1 0.00367268 1.00331 0.447255
37 1 0.00572587 0.501355 0.447139
23 1 0.497058 0.997881 0.44711
39 2 0.33373 0.667345 0.500445
53 2 0.832537 0.665803 0.499266
70 2 0.16631 0.33366 0.500627
84 2 0.667255 0.333969 0.499442
82 1 0.504097 0.00396655 0.552794
96 1 -0.00540688 0.499348 0.552769
98 2 0.167633 0.83332 0.500214
110 1 0.505271 0.500994 0.55275
68 1 0.995997 0.995915 0.552643
112 2 0.665582 0.832738 0.499742
86 2 -7.47772e-06 0.499474 0.625107
69 2 0.166666 0.333334 0.607334
83 2 0.666666 0.333334 0.607334
100 2 0.500908 0.500267 0.624864
72 2 0.50005 -0.000204644 0.62534
97 2 0.166668 0.833333 0.607334
111 2 0.666666 0.833334 0.607334
58 2 0.998787 0.999196 0.625007
59 2 0.166667 0.333334 0.642666
73 2 0.666668 0.333334 0.642666
71 1 0.502981 -0.00605071 0.697173
87 2 0.166667 0.833335 0.642666
101 2 0.666672 0.833328 0.642664
99 1 0.503384 0.508629 0.697288
57 1 0.992679 0.99534 0.697286
85 1 1.00086 0.502172 0.697161
60 2 0.165952 0.334074 0.749521
64 2 0.33414 0.16601 0.748958
74 2 0.666586 0.332888 0.749416
78 2 0.833313 0.16718 0.750221
88 2 0.167431 0.833257 0.749802
92 2 0.332533 0.666775 0.750611
102 2 0.666892 0.833311 0.751068
106 2 0.833039 0.666738 0.75051
61 1 0.00864935 0.00575322 0.802724
63 2 0.333331 0.16666 0.857335
103 1 0.49519 0.490477 0.802723
77 2 0.833333 0.166667 0.857334
75 1 0.498037 1.00558 0.802873
91 2 0.333333 0.666666 0.857334
105 2 0.833333 0.666666 0.857334
89 1 0.998036 0.498295 0.802866
66 2 0.333332 0.166667 0.892666
104 2 0.499654 0.499772 0.874697
76 2 0.500057 0.000273284 0.875345
62 2 1.00038 0.000416145 0.874829
80 2 0.833334 0.166667 0.892666
90 2 0.000765457 0.500489 0.874989
94 2 0.333333 0.666668 0.892666
108 2 0.833333 0.666666 0.892666
67 2 0.332073 0.165735 0.999461
79 1 0.495927 -0.00634564 0.947245
81 2 0.833372 0.166896 0.999257
93 1 0.00382504 0.507412 0.947233
95 2 0.333674 0.666922 1.0005
107 1 0.503635 0.505738 0.947252
65 1 0.996498 0.992931 0.947158
109 2 0.833895 0.66699 1.00058
ITEM: TIMESTEP
710
ITEM: NUMBER OF ATOMS
112
ITEM: BOX BOUNDS xy xz yz pp pp pp
-5.4876168397908796e+00 7.2694624074317726e+00 -4.2523544323591631e+00
-1.0697680971031300e+00 6.2955385886189621e+00 0.0000000000000000e+00
-6.7917756770615068e+00 3.8208175677061313e+01 0.0000000000000000e+00
ITEM: ATOMS id type xs ys zs
14 2 0.166457 0.332263 -0.00159348
54 1 0.490571 0.481431 0.0528267
28 2 0.66713 0.332741 -0.00136495
26 1 0.510768 0.0171143 0.0525989
12 1 1.00547 0.0176657 0.0525768
40 1 -0.00878265 0.480131 0.0527039
42 2 0.165971 0.833049 0.00172576
56 2 0.665569 0.832352 0.00116064
13 2 0.168457 0.336382 0.107725
27 2 0.668192 0.336369 0.107648
16 2 0.500383 0.0012095 0.125517
30 2 0.999069 0.498526 0.124714
2 2 0.999845 0.000787568 0.125516
41 2 0.166667 0.833334 0.10733
44 2 0.500017 0.499377 0.124921
55 2 0.666668 0.833334 0.10733
3 2 0.166661 0.333321 0.142904
17 2 0.666465 0.333224 0.142842
15 1 0.506828 0.00727021 0.197337
1 1 0.998082 -0.000306376 0.197156
29 1 -0.00840967 0.495961 0.197299
31 2 0.166667 0.833335 0.14267
43 1 0.503596 0.497272 0.197254
45 2 0.666667 0.833333 0.14267
4 2 0.16557 0.333046 0.249599
18 2 0.666516 0.333644 0.250958
8 2 0.333056 0.165973 0.25005
22 2 0.834722 0.167311 0.250546
32 2 0.1674 0.834119 0.249398
36 2 0.33263 0.666353 0.248988
46 2 0.667661 0.832788 0.2499
50 2 0.832323 0.667032 0.250355
5 1 0.00267986 0.000268603 0.302785
47 1 0.49421 0.501476 0.302696
7 2 0.333334 0.166666 0.357319
21 2 0.833334 0.166667 0.35733
33 1 0.00769761 0.505676 0.302689
19 1 0.495353 0.992722 0.302622
35 2 0.333328 0.666663 0.357204
49 2 0.833334 0.666666 0.35733
10 2 0.33371 0.166851 0.392617
6 2 0.00124056 0.000546198 0.374676
48 2 0.49937 0.499193 0.375221
24 2 0.833333 0.166667 0.39267
34 2 0.00137249 0.500326 0.375586
20 2 0.49914 0.998952 0.37518
38 2 0.334917 0.66774 0.392443
52 2 0.833332 0.666666 0.39267
11 2 0.332973 0.165986 0.50063
51 1 0.483967 0.49468 0.447341
25 2 0.833469 0.166838 0.499449
9 1 0.0102195 1.00931 0.447273
37 1 0.0138207 0.50271 0.447405
23 1 0.490858 0.992735 0.447101
39 2 0.333103 0.667098 0.50141
53 2 0.83134 0.665359 0.498278
70 2 0.167081 0.333753 0.501571
84 2 0.66759 0.334317 0.498458
82 1 0.511065 0.00929828 0.552777
96 1 -0.0136251 0.498249 0.552506
98 2 0.168195 0.834118 0.500398
110 1 0.514573 0.504025 0.552578
68 1 0.989853 0.989726 0.552499
112 2 0.665788 0.832957 0.499276
86 2 -0.000158219 0.499467 0.625375
69 2 0.166666 0.333334 0.60733
83 2 0.665477 0.332739 0.607518
100 2 0.501696 0.500748 0.624632
72 2 0.500366 -0.00047225 0.625222
97 2 0.166668 0.833333 0.60733
111 2 0.665255 0.832654 0.606773
58 2 0.997927 0.998548 0.624828
59 2 0.166667 0.333334 0.64267
73 2 0.66667 0.333335 0.642752
71 1 0.505475 -0.013866 0.697542
87 2 0.166674 0.833349 0.642668
101 2 0.667855 0.833714 0.641728
99 1 0.508366 0.519887 0.697676
57 1 0.98277 0.988147 0.697532
85 1 1.00358 0.506888 0.696944
60 2 0.164842 0.333838 0.74883
64 2 0.334244 0.166597 0.747283
74 2 0.666955 0.332885 0.748562
78 2 0.833933 0.167542 0.750472
88 2 0.167061 0.833124 0.749541
92 2 0.331806 0.666771 0.751445
102 2 0.66681 0.833027 0.752739
106 2 0.833824 0.66698 0.75118
61 1 0.0184015 0.012615 0.802457
63 2 0.333022 0.165981 0.858338
103 1 0.490235 0.479411 0.802287
77 2 0.833333 0.166667 0.85733
75 1 0.495727 1.0134 0.802558
91 2 0.333337 0.666675 0.857158
105 2 0.83334 0.666681 0.857084
89 1 0.99469 0.493879 0.803062
66 2 0.333337 0.166678 0.893403
104 2 0.499526 0.499518 0.874744
76 2 0.499658 -2.69365e-05 0.875589
62 2 1.00077 0.000450294 0.874822
80 2 0.833334 0.166667 0.89267
90 2 0.000952448 0.500766 0.874652
94 2 0.332125 0.664067 0.892374
108 2 0.831824 0.663398 0.892255
67 2 0.332367 0.166135 0.998873
79 1 0.48907 -0.0168993 0.947471
81 2 0.833738 0.168253 0.998273
93 1 0.0101369 0.520537 0.947288
95 2 0.334564 0.667651 1.00133
107 1 0.509922 0.517527 0.947139
65 1 0.9922 0.98187 0.94744
109 2 0.83411 0.667552 1.00157
ITEM: TIMESTEP
720
ITEM: NUMBER OF ATOMS
112
ITEM: BOX BOUNDS xy xz yz pp pp pp
-5.4876168397908796e+00 7.2694624074317726e+00 -4.2523544323591631e+00
-1.0697680971031300e+00 6.2955385886189621e+00 0.0000000000000000e+00
-6.7917756770615068e+00 3.8208175677061313e+01 0.0000000000000000e+00
ITEM: ATOMS id type xs ys zs
14 2 0.166622 0.332462 -0.00276275
54 1 0.483269 0.467883 0.0525579
28 2 0.666688 0.332398 -0.00246031
26 1 0.517369 0.0285163 0.0525986
12 1 1.01004 0.0288972 0.0526247
40 1 -0.0148597 0.467058 0.0523765
42 2 0.165323 0.83208 0.00291588
56 2 0.664491 0.830091 0.00181299
13 2 0.17039 0.340324 0.108555
27 2 0.67124 0.341174 0.108173
16 2 0.500629 0.00155761 0.125995
30 2 0.998722 0.498102 0.125156
2 2 0.999724 0.000752959 0.126187
41 2 0.166667 0.833334 0.10733
44 2 0.500069 0.499138 0.125319
55 2 0.666668 0.833334 0.10733
3 2 0.166605 0.333221 0.143556
17 2 0.665509 0.33285 0.142858
15 1 0.509879 0.0103834 0.197474
1 1 0.996566 -0.000521943 0.197093
29 1 -0.012016 0.493773 0.197452
31 2 0.166667 0.833335 0.14267
43 1 0.505741 0.496473 0.197374
45 2 0.666667 0.833333 0.14267
4 2 0.165489 0.332703 0.249378
18 2 0.666567 0.333581 0.251512
8 2 0.332912 0.165747 0.250069
22 2 0.834654 0.167144 0.250886
32 2 0.16761 0.834576 0.249044
36 2 0.332731 0.666435 0.248425
46 2 0.668105 0.832834 0.249863
50 2 0.832063 0.667246 0.250565
5 1 0.00443417 0.000570138 0.302818
47 1 0.491567 0.502054 0.302568
7 2 0.333321 0.16666 0.357115
21 2 0.833334 0.166667 0.35733
33 1 0.0116144 0.508313 0.30252
19 1 0.492319 0.989145 0.302494
35 2 0.333731 0.666929 0.357226
49 2 0.833334 0.666666 0.35733
10 2 0.33657 0.168231 0.392336
6 2 0.00154128 0.000721429 0.374406
48 2 0.498974 0.499123 0.374935
24 2 0.833333 0.166667 0.39267
34 2 0.00196418 0.500475 0.375422
20 2 0.498677 0.998531 0.375156
38 2 0.336562 0.66901 0.392025
52 2 0.833332 0.666666 0.39267
11 2 0.333433 0.165603 0.501076
51 1 0.474568 0.490544 0.44749
25 2 0.83385 0.166558 0.499302
9 1 0.0169622 1.01567 0.447299
37 1 0.0212471 0.503793 0.447573
23 1 0.483978 0.988549 0.447081
39 2 0.333386 0.667467 0.502208
53 2 0.830432 0.665274 0.497259
70 2 0.16742 0.334194 0.502553
84 2 0.667284 0.333831 0.497562
82 1 0.517709 0.0144975 0.552668
96 1 -0.0214251 0.497145 0.552366
98 2 0.168166 0.834186 0.500529
110 1 0.523433 0.506622 0.552259
68 1 0.984865 0.984034 0.552365
112 2 0.665371 0.832944 0.498843
86 2 -3.22585e-05 0.499657 0.625847
69 2 0.166666 0.333334 0.60733
83 2 0.663906 0.332101 0.608124
100 2 0.502176 0.500855 0.62438
72 2 0.500589 -0.000471816 0.624864
97 2 0.166665 0.833328 0.607209
111 2 0.661427 0.830988 0.606429
58 2 0.997436 0.998142 0.624547
59 2 0.166667 0.333334 0.64267
73 2 0.666698 0.333348 0.643218
71 1 0.506789 -0.0216675 0.697779
87 2 0.167635 0.835278 0.642468
101 2 0.668177 0.834151 0.6409
99 1 0.512737 0.529965 0.697983
57 1 0.974053 0.980931 0.697713
85 1 1.00622 0.510692 0.696771
60 2 0.1641 0.334376 0.748098
64 2 0.334352 0.166861 0.745774
74 2 0.668213 0.333625 0.747635
78 2 0.834515 0.168181 0.75078
88 2 0.166665 0.832476 0.749293
92 2 0.330397 0.665913 0.752392
102 2 0.666874 0.833018 0.754313
106 2 0.834394 0.666313 0.751943
61 1 0.0274891 0.0198579 0.802332
63 2 0.332862 0.165823 0.859406
103 1 0.485646 0.468966 0.802005
77 2 0.832517 0.165005 0.857506
75 1 0.494487 1.02149 0.802411
91 2 0.333374 0.666761 0.856598
105 2 0.833388 0.666787 0.856411
89 1 0.991609 0.489965 0.803258
66 2 0.333348 0.166699 0.894333
104 2 0.499544 0.499527 0.874863
76 2 0.499375 -0.000483015 0.875706
62 2 1.00102 0.00050586 0.874793
80 2 0.833336 0.166671 0.89277
90 2 0.000768838 0.500458 0.873942
94 2 0.330432 0.659875 0.891614
108 2 0.830164 0.659705 0.8914
67 2 0.33332 0.16843 0.998257
79 1 0.482084 -0.0291682 0.94753
81 2 0.834797 0.170356 0.997114
93 1 0.0161653 0.533139 0.947433
95 2 0.335334 0.668901 1.00236
107 1 0.516472 0.530515 0.947276
65 1 0.987073 0.97001 0.9475
109 2 0.833984 0.667933 1.00267
ITEM: TIMESTEP
730
ITEM: NUMBER OF ATOMS
112
ITEM: BOX BOUNDS xy xz yz pp pp pp
-5.4876168397908796e+00 7.2694624074317726e+00 -4.2523544323591631e+00
-1.0697680971031300e+00 6.2955385886189621e+00 0.0000000000000000e+00
-6.7917756770615068e+00 3.8208175677061313e+01 0.0000000000000000e+00
ITEM: ATOMS id type xs ys zs
14 2 0.167212 0.333366 -0.00393274
54 1 0.475611 0.454305 0.0519957
28 2 0.666676 0.332392 -0.0034944
26 1 0.522759 0.0362846 0.0524092
12 1 1.01202 0.0365639 0.0523951
40 1 -0.0197434 0.455503 0.0519955
42 2 0.164704 0.83137 0.00397539
56 2 0.662674 0.825535 0.00244726
13 2 0.172003 0.343561 0.109122
27 2 0.673403 0.345298 0.108441
16 2 0.500667 0.00154843 0.126612
30 2 0.998623 0.498189 0.125575
2 2 0.999423 0.000258216 0.127295
41 2 0.166667 0.833334 0.10733
44 2 0.500338 0.499355 0.125623
55 2 0.666668 0.833334 0.10733
3 2 0.166658 0.333327 0.144046
17 2 0.665015 0.332519 0.14287
15 1 0.511741 0.0118048 0.197547
1 1 0.995016 -0.000985275 0.196902
29 1 -0.0140334 0.492461 0.197539
31 2 0.166667 0.833335 0.14267
43 1 0.506971 0.496421 0.19743
45 2 0.666667 0.833333 0.14267
4 2 0.165305 0.3322 0.249241
18 2 0.666592 0.333571 0.251794
8 2 0.332757 0.165605 0.250041
22 2 0.834739 0.16687 0.251093
32 2 0.167541 0.834999 0.248798
36 2 0.332703 0.666393 0.248108
46 2 0.668498 0.832896 0.249869
50 2 0.831961 0.66759 0.250686
5 1 0.00593028 0.000844194 0.302871
47 1 0.48997 0.50205 0.302469
7 2 0.333451 0.166726 0.356934
21 2 0.833334 0.166667 0.35733
33 1 0.0137976 0.509923 0.302395
19 1 0.490373 0.987304 0.30239
35 2 0.333922 0.666935 0.357235
49 2 0.833334 0.666666 0.35733
10 2 0.339254 0.169505 0.392084
6 2 0.00169166 0.000764755 0.374095
48 2 0.498857 0.499136 0.374607
24 2 0.833333 0.166667 0.39267
34 2 0.00227873 0.500566 0.375182
20 2 0.49839 0.998285 0.375107
38 2 0.33781 0.669754 0.391763
52 2 0.833332 0.666666 0.39267
11 2 0.333614 0.165092 0.501485
51 1 0.467328 0.487033 0.447613
25 2 0.833633 0.16612 0.499285
9 1 0.0225179 1.02061 0.447303
37 1 0.0264644 0.504506 0.447704
23 1 0.478472 0.985766 0.447106
39 2 0.33403 0.668017 0.50284
53 2 0.829624 0.665274 0.49641
70 2 0.167329 0.334398 0.503361
84 2 0.666864 0.333333 0.496791
82 1 0.522752 0.0191941 0.552505
96 1 -0.027081 0.496392 0.552299
98 2 0.16822 0.834208 0.500624
110 1 0.530376 0.508215 0.551961
68 1 0.981022 0.979685 0.552264
112 2 0.664883 0.832756 0.498466
86 2 0.000332319 0.499898 0.62649
69 2 0.166666 0.333334 0.60733
83 2 0.662572 0.331579 0.608617
100 2 0.50234 0.500668 0.624166
72 2 0.500692 -0.000261575 0.624473
97 2 0.166658 0.833314 0.607071
111 2 0.658768 0.829782 0.606222
58 2 0.997266 0.997983 0.624293
59 2 0.166667 0.333334 0.64267
73 2 0.666741 0.333367 0.643638
71 1 0.507559 -0.0275124 0.697972
87 2 0.168546 0.837112 0.642301
101 2 0.668586 0.834626 0.640339
99 1 0.515983 0.537468 0.69823
57 1 0.967683 0.975392 0.697888
85 1 1.00853 0.514007 0.696655
60 2 0.163465 0.335131 0.747516
64 2 0.334363 0.166848 0.744631
74 2 0.669612 0.334543 0.746892
78 2 0.835381 0.169671 0.751115
88 2 0.165992 0.831077 0.749078
92 2 0.32888 0.664741 0.753197
102 2 0.667166 0.833524 0.755526
106 2 0.834794 0.665267 0.752602
61 1 0.0343268 0.0254859 0.802234
63 2 0.332665 0.165557 0.860213
103 1 0.482115 0.461012 0.801839
77 2 0.831632 0.163194 0.857673
75 1 0.493581 1.02758 0.802298
91 2 0.333431 0.66689 0.856095
105 2 0.833322 0.667075 0.855902
89 1 0.989325 0.486682 0.803417
66 2 0.333359 0.16672 0.895048
104 2 0.499541 0.499538 0.875055
76 2 0.499302 -0.000793789 0.875725
62 2 1.00115 0.000647008 0.874706
80 2 0.833342 0.166684 0.892904
90 2 0.000255727 0.499504 0.872793
94 2 0.329028 0.656916 0.891071
108 2 0.828811 0.657173 0.890819
67 2 0.335199 0.172087 0.997777
79 1 0.476275 -0.0372848 0.947839
81 2 0.835286 0.171547 0.996119
93 1 0.021273 0.543943 0.947671
95 2 0.336068 0.670306 1.00329
107 1 0.522934 0.542823 0.947572
65 1 0.98508 0.962561 0.947723
109 2 0.833848 0.667683 1.00374
ITEM: TIMESTEP
740
ITEM: NUMBER OF ATOMS
112
ITEM: BOX BOUNDS xy xz yz pp pp pp
-5.4876168397908796e+00 7.2694624074317726e+00 -4.2523544323591631e+00
-1.0697680971031300e+00 6.2955385886189621e+00 0.0000000000000000e+00
-6.7917756770615068e+00 3.8208175677061313e+01 0.0000000000000000e+00
ITEM: ATOMS id type xs ys zs
14 2 0.167725 0.334086 -0.00452772
54 1 0.471547 0.44721 0.0516063
28 2 0.66684 0.332625 -0.00400268
26 1 0.525657 0.0388702 0.0521701
12 1 1.01299 0.0400414 0.0524389
40 1 -0.0220067 0.450117 0.0518043
42 2 0.164048 0.83049 0.00448293
56 2 0.66087 0.823097 0.00251191
13 2 0.172744 0.344787 0.109302
27 2 0.674123 0.347009 0.108494
16 2 0.500598 0.0013939 0.127123
30 2 0.998622 0.49835 0.12579
2 2 0.999086 -0.000246468 0.129324
41 2 0.166667 0.833334 0.10733
44 2 0.500537 0.499583 0.125783
55 2 0.666668 0.833335 0.107323
3 2 0.167137 0.33426 0.144125
17 2 0.664809 0.332364 0.14285
15 1 0.51239 0.0122156 0.197508
1 1 0.994638 -0.00170659 0.19579
29 1 -0.014832 0.491978 0.19753
31 2 0.166667 0.833335 0.14267
43 1 0.507447 0.496482 0.197412
45 2 0.666196 0.833096 0.1426
4 2 0.16524 0.331789 0.249175
18 2 0.666586 0.333561 0.251889
8 2 0.332683 0.16554 0.250015
22 2 0.834767 0.16674 0.251175
32 2 0.167476 0.835325 0.248682
36 2 0.332685 0.666369 0.247983
46 2 0.668642 0.832902 0.249885
50 2 0.83191 0.667719 0.250729
5 1 0.00636896 0.000839779 0.302873
47 1 0.489272 0.501975 0.302408
7 2 0.33378 0.166894 0.356875
21 2 0.833334 0.166667 0.35733
33 1 0.0146377 0.510561 0.302328
19 1 0.489545 0.986586 0.30233
35 2 0.333989 0.666916 0.357223
49 2 0.833334 0.666666 0.35733
10 2 0.34054 0.170074 0.391969
6 2 0.00172561 0.000748131 0.373919
48 2 0.498865 0.499167 0.374434
24 2 0.833333 0.166667 0.39267
34 2 0.00237616 0.500603 0.375048
20 2 0.498288 0.998199 0.37508
38 2 0.338402 0.670119 0.391646
52 2 0.833332 0.666666 0.39267
11 2 0.333702 0.164809 0.501692
51 1 0.464127 0.485498 0.44767
25 2 0.832912 0.165631 0.499363
9 1 0.0251516 1.02267 0.447284
37 1 0.028722 0.50491 0.447751
23 1 0.475909 0.98454 0.447116
39 2 0.334403 0.668374 0.503128
53 2 0.829231 0.665322 0.496004
70 2 0.167192 0.334401 0.503721
84 2 0.666646 0.333046 0.49643
82 1 0.525186 0.0214652 0.552411
96 1 -0.0296122 0.496173 0.552195
98 2 0.168351 0.834295 0.500661
110 1 0.533621 0.508919 0.551832
68 1 0.979352 0.977726 0.552219
112 2 0.664636 0.832607 0.498277
86 2 0.000658188 0.500056 0.627052
69 2 0.166666 0.333334 0.60733
83 2 0.662012 0.331352 0.608834
100 2 0.502354 0.50051 0.624065
72 2 0.500718 -0.000103052 0.624261
97 2 0.166653 0.833304 0.607006
111 2 0.657491 0.829234 0.606117
58 2 0.997249 0.997958 0.624169
59 2 0.166667 0.333334 0.64267
73 2 0.666766 0.333377 0.643829
71 1 0.50786 -0.0301141 0.698053
87 2 0.168971 0.837972 0.642223
101 2 0.668826 0.834882 0.640085
99 1 0.517475 0.540851 0.698351
57 1 0.964921 0.972798 0.697962
85 1 1.00967 0.515697 0.696594
60 2 0.163151 0.335591 0.747246
64 2 0.334314 0.166704 0.744129
74 2 0.670378 0.335057 0.746554
78 2 0.836024 0.171003 0.751343
88 2 0.165468 0.829823 0.748915
92 2 0.327988 0.66406 0.753578
102 2 0.667381 0.83392 0.756065
106 2 0.835036 0.664608 0.752923
61 1 0.0372514 0.0280688 0.802224
63 2 0.332549 0.165378 0.860572
103 1 0.480508 0.45751 0.801784
77 2 0.831018 0.161935 0.857805
75 1 0.493143 1.03017 0.802267
91 2 0.333457 0.666949 0.85591
105 2 0.833011 0.667546 0.855781
89 1 0.989026 0.485496 0.804549
66 2 0.333366 0.166731 0.895366
104 2 0.499529 0.499536 0.875197
76 2 0.499326 -0.000892821 0.875722
62 2 1.0012 0.000760884 0.874661
80 2 0.833349 0.166697 0.892978
90 2 -0.000283025 0.498642 0.870957
94 2 0.32848 0.655773 0.890881
108 2 0.828348 0.656267 0.890628
67 2 0.33651 0.174444 0.997754
79 1 0.47373 -0.0404869 0.947936
81 2 0.835667 0.17244 0.995584
93 1 0.0236579 0.549022 0.947555
95 2 0.336293 0.670975 1.00374
107 1 0.526212 0.548961 0.947782
65 1 0.984415 0.95969 0.9479
109 2 0.833727 0.667404 1.00425
ITEM: TIMESTEP
750
ITEM: NUMBER OF ATOMS
112
ITEM: BOX BOUNDS xy xz yz pp pp pp
-5.4876168397908796e+00 7.2694624074317726e+00 -4.2523544323591631e+00
-1.0697680971031300e+00 6.2955385886189621e+00 0.0000000000000000e+00
-6.7917756770615068e+00 3.8208175677061313e+01 0.0000000000000000e+00
ITEM: ATOMS id type xs ys zs
14 2 0.167893 0.334746 -0.00504925
54 1 0.46756 0.440153 0.0507954
28 2 0.667628 0.333239 -0.00452247
26 1 0.527702 0.0407259 0.052158
12 1 1.01277 0.0418099 0.0525452
40 1 -0.0240686 0.445386 0.05162
42 2 0.163473 0.8303 0.00494876
56 2 0.660249 0.820616 0.00249023
13 2 0.173723 0.346176 0.109396
27 2 0.674394 0.348295 0.108463
16 2 0.500554 0.00122526 0.128364
30 2 0.998639 0.49855 0.126022
2 2 0.998862 -0.000341011 0.131462
41 2 0.166667 0.833335 0.107324
44 2 0.50087 0.500036 0.126304
55 2 0.666677 0.833339 0.107256
3 2 0.168304 0.336545 0.144041
17 2 0.664716 0.332397 0.142773
15 1 0.512479 0.012108 0.196962
1 1 0.994884 -0.00287227 0.194465
29 1 -0.0153995 0.491711 0.19748
31 2 0.16691 0.833103 0.142602
43 1 0.507789 0.49656 0.197284
45 2 0.664257 0.832124 0.142361
4 2 0.165057 0.330979 0.249077
18 2 0.666542 0.333504 0.251941
8 2 0.332628 0.165434 0.249978
22 2 0.83478 0.166637 0.251233
32 2 0.167294 0.835896 0.248526
36 2 0.332674 0.66641 0.247865
46 2 0.669301 0.833191 0.249821
50 2 0.831865 0.667813 0.250754
5 1 0.0066735 0.000836925 0.302873
47 1 0.488681 0.501976 0.302321
7 2 0.33411 0.167062 0.356819
21 2 0.833334 0.166667 0.35733
33 1 0.0153194 0.511073 0.302255
19 1 0.488861 0.98595 0.302263
35 2 0.334042 0.66689 0.357201
49 2 0.833334 0.666666 0.35733
10 2 0.341693 0.170542 0.391854
6 2 0.00173605 0.000716946 0.37375
48 2 0.498902 0.499206 0.374283
24 2 0.833333 0.166667 0.39267
34 2 0.00243644 0.500631 0.374926
20 2 0.498217 0.998139 0.375057
38 2 0.338926 0.670443 0.391544
52 2 0.833332 0.666666 0.39267
11 2 0.333814 0.164547 0.501876
51 1 0.461518 0.484294 0.447716
25 2 0.830973 0.164468 0.499495
9 1 0.0276099 1.0241 0.4472
37 1 0.0305063 0.505249 0.447797
23 1 0.473762 0.983512 0.447118
39 2 0.334744 0.668707 0.503369
53 2 0.828938 0.66555 0.495633
70 2 0.167094 0.334236 0.503983
84 2 0.666387 0.332742 0.496109
82 1 0.527657 0.0235673 0.552263
96 1 -0.0316905 0.496533 0.552186
98 2 0.168629 0.834606 0.500669
110 1 0.536246 0.509475 0.551736
68 1 0.978004 0.975979 0.552177
112 2 0.66444 0.832492 0.49812
86 2 0.00117913 0.500389 0.628427
69 2 0.166666 0.333334 0.60733
83 2 0.661781 0.331252 0.608981
100 2 0.502339 0.500345 0.623981
72 2 0.500727 5.62932e-05 0.624062
97 2 0.166648 0.833293 0.606949
111 2 0.656391 0.828809 0.606023
58 2 0.997264 0.99796 0.624066
59 2 0.166667 0.333334 0.64267
73 2 0.666787 0.333386 0.64398
71 1 0.508715 -0.0319644 0.698143
87 2 0.169389 0.838817 0.642139
101 2 0.66906 0.835104 0.639876
99 1 0.518726 0.543642 0.698455
57 1 0.962333 0.970833 0.698085
85 1 1.01064 0.51721 0.696023
60 2 0.162853 0.336044 0.747018
64 2 0.334234 0.166495 0.74373
74 2 0.671106 0.335534 0.746278
78 2 0.836293 0.171524 0.751393
88 2 0.164601 0.827605 0.748687
92 2 0.327207 0.663533 0.753878
102 2 0.667621 0.834311 0.756519
106 2 0.835335 0.664123 0.753169
61 1 0.0394303 0.0304451 0.802262
63 2 0.33247 0.165223 0.860873
103 1 0.479129 0.45466 0.80175
77 2 0.829898 0.159647 0.858052
75 1 0.492781 1.03223 0.802242
91 2 0.334255 0.667414 0.855857
105 2 0.832175 0.668649 0.855804
89 1 0.989677 0.48535 0.806072
66 2 0.333373 0.166743 0.895629
104 2 0.499516 0.499534 0.875335
76 2 0.49937 -0.000954918 0.875721
62 2 1.00124 0.000878209 0.87463
80 2 0.833367 0.166735 0.893094
90 2 -0.000735102 0.498033 0.868915
94 2 0.328622 0.655174 0.890713
108 2 0.82764 0.655707 0.890454
67 2 0.337288 0.177542 0.998032
79 1 0.471696 -0.0425663 0.948181
81 2 0.836532 0.172982 0.995233
93 1 0.0253874 0.552551 0.947438
95 2 0.335743 0.671295 1.00401
107 1 0.529035 0.554194 0.947977
65 1 0.984308 0.957348 0.947946
109 2 0.834005 0.66691 1.00459
ITEM: TIMESTEP
760
ITEM: NUMBER OF ATOMS
112
ITEM: BOX BOUNDS xy xz yz pp pp pp
-5.4876168397908796e+00 7.2694624074317726e+00 -4.2523544323591631e+00
-1.0697680971031300e+00 6.2955385886189621e+00 0.0000000000000000e+00
-6.7917756770615068e+00 3.8208175677061313e+01 0.0000000000000000e+00
ITEM: ATOMS id type xs ys zs
14 2 0.167857 0.335008 0.994535
54 1 0.464012 0.433353 0.0502557
28 2 0.668212 0.333835 0.995058
26 1 0.529215 0.0414198 0.0522901
12 1 0.0119544 0.0427502 0.0526538
40 1 0.973918 0.441202 0.0513269
42 2 0.163563 0.830605 0.00535047
56 2 0.65918 0.81829 0.00242103
13 2 0.174581 0.34737 0.109408
27 2 0.674635 0.349604 0.108423
16 2 0.500849 0.00150886 0.129306
30 2 0.998695 0.498848 0.12642
2 2 0.998661 0.999528 0.133685
41 2 0.166663 0.833338 0.107275
44 2 0.501057 0.500108 0.126883
55 2 0.6667 0.833351 0.107144
3 2 0.16964 0.339175 0.143923
17 2 0.665013 0.332845 0.142608
15 1 0.512157 0.0113082 0.196244
1 1 0.994883 0.99647 0.193328
29 1 0.984317 0.491605 0.197384
31 2 0.167795 0.83226 0.142391
43 1 0.50796 0.496912 0.196767
45 2 0.661806 0.830904 0.1421
4 2 0.164912 0.330435 0.249001
18 2 0.666372 0.333309 0.251922
8 2 0.332675 0.16523 0.24991
22 2 0.834614 0.166455 0.251249
32 2 0.167177 0.836288 0.248408
36 2 0.33282 0.66665 0.247726
46 2 0.669667 0.83341 0.249722
50 2 0.831781 0.667868 0.25076
5 1 0.00692206 0.000871681 0.302848
47 1 0.488231 0.501994 0.302244
7 2 0.334385 0.167203 0.356766
21 2 0.833334 0.166667 0.35733
33 1 0.0158419 0.511455 0.302176
19 1 0.488339 0.985454 0.302209
35 2 0.334073 0.666852 0.35718
49 2 0.833334 0.666666 0.35733
10 2 0.342599 0.170945 0.391756
6 2 0.00173061 0.000679674 0.373601
48 2 0.498948 0.499245 0.374159
24 2 0.833333 0.166667 0.39267
34 2 0.00247037 0.500653 0.374828
20 2 0.498171 0.9981 0.375038
38 2 0.339266 0.67067 0.391474
52 2 0.833332 0.666666 0.39267
11 2 0.333936 0.164323 0.502028
51 1 0.45947 0.483325 0.447752
25 2 0.829784 0.163855 0.49954
9 1 0.0290156 0.025701 0.447277
37 1 0.0315218 0.504795 0.4479
23 1 0.472097 0.982699 0.447139
39 2 0.33504 0.66898 0.503559
53 2 0.828621 0.665364 0.495424
70 2 0.166838 0.334165 0.504236
84 2 0.666342 0.332577 0.495884
82 1 0.530386 0.0256172 0.552061
96 1 0.967189 0.496973 0.552543
98 2 0.168785 0.834583 0.500703
110 1 0.538479 0.509976 0.551644
68 1 0.97697 0.974717 0.552165
112 2 0.664296 0.83243 0.497997
86 2 0.00144036 0.500825 0.629553
69 2 0.166666 0.333334 0.60733
83 2 0.661149 0.330884 0.609159
100 2 0.502314 0.500196 0.623907
72 2 0.500724 0.000196841 0.623883
97 2 0.166638 0.833273 0.606884
111 2 0.65547 0.828505 0.605941
58 2 0.997295 0.997974 0.623984
59 2 0.166667 0.333334 0.64267
73 2 0.666768 0.333374 0.644095
71 1 0.509454 0.966667 0.698253
87 2 0.169976 0.840005 0.64201
101 2 0.669301 0.835298 0.639712