ITEM: TIMESTEP
0
ITEM: NUMBER OF ATOMS
112
ITEM: BOX BOUNDS xy xz yz pp pp pp
-3.0171000000000001e+00 6.0342000000000002e+00 -3.0171000000000001e+00
0.0000000000000000e+00 5.2257704915160001e+00 0.0000000000000000e+00
0.0000000000000000e+00 3.1416399999999999e+01 0.0000000000000000e+00
ITEM: ATOMS id type xs ys zs
12 1 0 0 0.051455
13 2 0.166667 0.333334 0.09871
14 2 0.166667 0.333334 0.00137
40 1 5.55112e-17 0.5 0.051455
41 2 0.166667 0.833334 0.09871
42 2 0.166667 0.833334 0.00137
55 2 0.666667 0.833334 0.09871
56 2 0.666667 0.833334 0.00137
26 1 0.5 0 0.051455
27 2 0.666667 0.333334 0.09871
28 2 0.666667 0.333334 0.00137
54 1 0.5 0.5 0.051455
1 1 0 0 0.198545
2 2 0 0 0.125
3 2 0.166667 0.333334 0.15129
4 2 0.166667 0.333334 0.24863
29 1 5.55112e-17 0.5 0.198545
30 2 5.55112e-17 0.5 0.125
31 2 0.166667 0.833334 0.15129
32 2 0.166667 0.833334 0.24863
45 2 0.666667 0.833334 0.15129
46 2 0.666667 0.833334 0.24863
15 1 0.5 0 0.198545
16 2 0.5 0 0.125
17 2 0.666667 0.333334 0.15129
18 2 0.666667 0.333334 0.24863
43 1 0.5 0.5 0.198545
44 2 0.5 0.5 0.125
5 1 0 0 0.301455
33 1 5.55112e-17 0.5 0.301455
35 2 0.333333 0.666666 0.34871
36 2 0.333333 0.666666 0.25137
7 2 0.333333 0.166666 0.34871
8 2 0.333333 0.166666 0.25137
19 1 0.5 0 0.301455
21 2 0.833333 0.166666 0.34871
22 2 0.833333 0.166666 0.25137
47 1 0.5 0.5 0.301455
49 2 0.833333 0.666666 0.34871
50 2 0.833333 0.666666 0.25137
6 2 0 0 0.375
9 1 0 0 0.448545
34 2 5.55112e-17 0.5 0.375
37 1 5.55112e-17 0.5 0.448545
38 2 0.333333 0.666666 0.40129
39 2 0.333333 0.666666 0.49863
10 2 0.333333 0.166666 0.40129
11 2 0.333333 0.166666 0.49863
20 2 0.5 0 0.375
23 1 0.5 0 0.448545
24 2 0.833333 0.166666 0.40129
25 2 0.833333 0.166666 0.49863
48 2 0.5 0.5 0.375
51 1 0.5 0.5 0.448545
52 2 0.833333 0.666666 0.40129
53 2 0.833333 0.666666 0.49863
68 1 0 0 0.551455
69 2 0.166667 0.333334 0.59871
70 2 0.166667 0.333334 0.50137
96 1 5.55112e-17 0.5 0.551455
97 2 0.166667 0.833334 0.59871
98 2 0.166667 0.833334 0.50137
111 2 0.666667 0.833334 0.59871
112 2 0.666667 0.833334 0.50137
82 1 0.5 0 0.551455
83 2 0.666667 0.333334 0.59871
84 2 0.666667 0.333334 0.50137
110 1 0.5 0.5 0.551455
57 1 0 0 0.698545
58 2 0 0 0.625
59 2 0.166667 0.333334 0.65129
60 2 0.166667 0.333334 0.74863
85 1 5.55112e-17 0.5 0.698545
86 2 5.55112e-17 0.5 0.625
87 2 0.166667 0.833334 0.65129
88 2 0.166667 0.833334 0.74863
101 2 0.666667 0.833334 0.65129
102 2 0.666667 0.833334 0.74863
71 1 0.5 0 0.698545
72 2 0.5 0 0.625
73 2 0.666667 0.333334 0.65129
74 2 0.666667 0.333334 0.74863
99 1 0.5 0.5 0.698545
100 2 0.5 0.5 0.625
61 1 0 0 0.801455
62 2 0 0 0.875
89 1 5.55112e-17 0.5 0.801455
90 2 5.55112e-17 0.5 0.875
91 2 0.333333 0.666666 0.84871
92 2 0.333333 0.666666 0.75137
63 2 0.333333 0.166666 0.84871
64 2 0.333333 0.166666 0.75137
75 1 0.5 0 0.801455
76 2 0.5 0 0.875
77 2 0.833333 0.166666 0.84871
78 2 0.833333 0.166666 0.75137
103 1 0.5 0.5 0.801455
104 2 0.5 0.5 0.875
105 2 0.833333 0.666666 0.84871
106 2 0.833333 0.666666 0.75137
65 1 0 0 0.948545
93 1 5.55112e-17 0.5 0.948545
94 2 0.333333 0.666666 0.90129
95 2 0.333333 0.666666 0.99863
66 2 0.333333 0.166666 0.90129
67 2 0.333333 0.166666 0.99863
79 1 0.5 0 0.948545
80 2 0.833333 0.166666 0.90129
81 2 0.833333 0.166666 0.99863
107 1 0.5 0.5 0.948545
108 2 0.833333 0.666666 0.90129
109 2 0.833333 0.666666 0.99863
ITEM: TIMESTEP
10
ITEM: NUMBER OF ATOMS
112
ITEM: BOX BOUNDS xy xz yz pp pp pp
-3.0774419999999982e+00 6.0643710000000013e+00 -3.0472709999999981e+00
-2.6128852457580003e-02 5.2518993439735766e+00 0.0000000000000000e+00
-1.5708200000000003e-01 3.1573481999999988e+01 0.0000000000000000e+00
ITEM: ATOMS id type xs ys zs
12 1 -4.4874e-12 4.4874e-12 0.0514551
13 2 0.166667 0.333333 0.0987093
14 2 0.166667 0.333333 0.00137005
40 1 -4.48735e-12 0.5 0.0514551
41 2 0.166667 0.833333 0.0987093
42 2 0.166667 0.833333 0.00137005
55 2 0.666667 0.833333 0.0987093
56 2 0.666667 0.833333 0.00137005
26 1 0.5 4.4874e-12 0.0514551
27 2 0.666667 0.333333 0.0987093
28 2 0.666667 0.333333 0.00137005
54 1 0.5 0.5 0.0514551
1 1 -4.4874e-12 4.4874e-12 0.198545
2 2 -1.33031e-11 1.33031e-11 0.125
3 2 0.166667 0.333333 0.151291
4 2 0.166667 0.333333 0.24863
29 1 -4.48735e-12 0.5 0.198545
30 2 -1.3303e-11 0.5 0.125
31 2 0.166667 0.833333 0.151291
32 2 0.166667 0.833333 0.24863
45 2 0.666667 0.833333 0.151291
46 2 0.666667 0.833333 0.24863
15 1 0.5 4.4874e-12 0.198545
16 2 0.5 1.33031e-11 0.125
17 2 0.666667 0.333333 0.151291
18 2 0.666667 0.333333 0.24863
43 1 0.5 0.5 0.198545
44 2 0.5 0.5 0.125
5 1 4.4874e-12 -4.4874e-12 0.301455
33 1 4.4876e-12 0.5 0.301455
35 2 0.333333 0.666667 0.348709
36 2 0.333333 0.666667 0.25137
7 2 0.333333 0.166667 0.348709
8 2 0.333333 0.166667 0.25137
19 1 0.5 -4.4874e-12 0.301455
21 2 0.833333 0.166667 0.348709
22 2 0.833333 0.166667 0.25137
47 1 0.5 0.5 0.301455
49 2 0.833333 0.666667 0.348709
50 2 0.833333 0.666667 0.25137
6 2 1.33031e-11 -1.33031e-11 0.375
9 1 4.4874e-12 -4.4874e-12 0.448545
34 2 1.33033e-11 0.5 0.375
37 1 4.4876e-12 0.5 0.448545
38 2 0.333333 0.666667 0.401291
39 2 0.333333 0.666667 0.49863
10 2 0.333333 0.166667 0.401291
11 2 0.333333 0.166667 0.49863
20 2 0.5 -1.33031e-11 0.375
23 1 0.5 -4.4874e-12 0.448545
24 2 0.833333 0.166667 0.401291
25 2 0.833333 0.166667 0.49863
48 2 0.5 0.5 0.375
51 1 0.5 0.5 0.448545
52 2 0.833333 0.666667 0.401291
53 2 0.833333 0.666667 0.49863
68 1 -4.4874e-12 4.4874e-12 0.551455
69 2 0.166667 0.333333 0.598709
70 2 0.166667 0.333333 0.50137
96 1 -4.48735e-12 0.5 0.551455
97 2 0.166667 0.833333 0.598709
98 2 0.166667 0.833333 0.50137
111 2 0.666667 0.833333 0.598709
112 2 0.666667 0.833333 0.50137
82 1 0.5 4.4874e-12 0.551455
83 2 0.666667 0.333333 0.598709
84 2 0.666667 0.333333 0.50137
110 1 0.5 0.5 0.551455
57 1 -4.4874e-12 4.4874e-12 0.698545
58 2 -1.33031e-11 1.33031e-11 0.625
59 2 0.166667 0.333333 0.651291
60 2 0.166667 0.333333 0.74863
85 1 -4.48735e-12 0.5 0.698545
86 2 -1.3303e-11 0.5 0.625
87 2 0.166667 0.833333 0.651291
88 2 0.166667 0.833333 0.74863
101 2 0.666667 0.833333 0.651291
102 2 0.666667 0.833333 0.74863
71 1 0.5 4.4874e-12 0.698545
72 2 0.5 1.33031e-11 0.625
73 2 0.666667 0.333333 0.651291
74 2 0.666667 0.333333 0.74863
99 1 0.5 0.5 0.698545
100 2 0.5 0.5 0.625
61 1 4.4874e-12 -4.4874e-12 0.801455
62 2 1.33031e-11 -1.33031e-11 0.875
89 1 4.4876e-12 0.5 0.801455
90 2 1.33033e-11 0.5 0.875
91 2 0.333333 0.666667 0.848709
92 2 0.333333 0.666667 0.75137
63 2 0.333333 0.166667 0.848709
64 2 0.333333 0.166667 0.75137
75 1 0.5 -4.4874e-12 0.801455
76 2 0.5 -1.33031e-11 0.875
77 2 0.833333 0.166667 0.848709
78 2 0.833333 0.166667 0.75137
103 1 0.5 0.5 0.801455
104 2 0.5 0.5 0.875
105 2 0.833333 0.666667 0.848709
106 2 0.833333 0.666667 0.75137
65 1 4.4874e-12 -4.4874e-12 0.948545
93 1 4.4876e-12 0.5 0.948545
94 2 0.333333 0.666667 0.901291
95 2 0.333333 0.666667 0.99863
66 2 0.333333 0.166667 0.901291
67 2 0.333333 0.166667 0.99863
79 1 0.5 -4.4874e-12 0.948545
80 2 0.833333 0.166667 0.901291
81 2 0.833333 0.166667 0.99863
107 1 0.5 0.5 0.948545
108 2 0.833333 0.666667 0.901291
109 2 0.833333 0.666667 0.99863
ITEM: TIMESTEP
20
ITEM: NUMBER OF ATOMS
112
ITEM: BOX BOUNDS xy xz yz pp pp pp
-3.1377839999999959e+00 6.0945420000000023e+00 -3.0774419999999960e+00
-5.2257704915160033e-02 5.2780281964311531e+00 0.0000000000000000e+00
-3.1416400000000011e-01 3.1730563999999976e+01 0.0000000000000000e+00
ITEM: ATOMS id type xs ys zs
12 1 -9.69836e-12 9.69836e-12 0.0514553
13 2 0.166667 0.333333 0.0987086
14 2 0.166667 0.333333 0.00137012
40 1 -9.69858e-12 0.5 0.0514553
41 2 0.166667 0.833333 0.0987086
42 2 0.166667 0.833333 0.00137012
55 2 0.666667 0.833333 0.0987086
56 2 0.666667 0.833333 0.00137012
26 1 0.5 9.69836e-12 0.0514553
27 2 0.666667 0.333333 0.0987086
28 2 0.666667 0.333333 0.00137012
54 1 0.5 0.5 0.0514553
1 1 -9.69836e-12 9.69836e-12 0.198545
2 2 -2.66331e-11 2.66331e-11 0.125
3 2 0.166667 0.333333 0.151291
4 2 0.166667 0.333333 0.24863
29 1 -9.69858e-12 0.5 0.198545
30 2 -2.66331e-11 0.5 0.125
31 2 0.166667 0.833333 0.151291
32 2 0.166667 0.833333 0.24863
45 2 0.666667 0.833333 0.151291
46 2 0.666667 0.833333 0.24863
15 1 0.5 9.69836e-12 0.198545
16 2 0.5 2.66331e-11 0.125
17 2 0.666667 0.333333 0.151291
18 2 0.666667 0.333333 0.24863
43 1 0.5 0.5 0.198545
44 2 0.5 0.5 0.125
5 1 9.69836e-12 -9.69836e-12 0.301455
33 1 9.69844e-12 0.5 0.301455
35 2 0.333333 0.666667 0.348709
36 2 0.333333 0.666667 0.25137
7 2 0.333333 0.166667 0.348709
8 2 0.333333 0.166667 0.25137
19 1 0.5 -9.69836e-12 0.301455
21 2 0.833333 0.166667 0.348709
22 2 0.833333 0.166667 0.25137
47 1 0.5 0.5 0.301455
49 2 0.833333 0.666667 0.348709
50 2 0.833333 0.666667 0.25137
6 2 2.66331e-11 -2.66331e-11 0.375
9 1 9.69836e-12 -9.69836e-12 0.448545
34 2 2.66333e-11 0.5 0.375
37 1 9.69844e-12 0.5 0.448545
38 2 0.333333 0.666667 0.401291
39 2 0.333333 0.666667 0.49863
10 2 0.333333 0.166667 0.401291
11 2 0.333333 0.166667 0.49863
20 2 0.5 -2.66331e-11 0.375
23 1 0.5 -9.69836e-12 0.448545
24 2 0.833333 0.166667 0.401291
25 2 0.833333 0.166667 0.49863
48 2 0.5 0.5 0.375
51 1 0.5 0.5 0.448545
52 2 0.833333 0.666667 0.401291
53 2 0.833333 0.666667 0.49863
68 1 -9.69836e-12 9.69836e-12 0.551455
69 2 0.166667 0.333333 0.598709
70 2 0.166667 0.333333 0.50137
96 1 -9.69858e-12 0.5 0.551455
97 2 0.166667 0.833333 0.598709
98 2 0.166667 0.833333 0.50137
111 2 0.666667 0.833333 0.598709
112 2 0.666667 0.833333 0.50137
82 1 0.5 9.69836e-12 0.551455
83 2 0.666667 0.333333 0.598709
84 2 0.666667 0.333333 0.50137
110 1 0.5 0.5 0.551455
57 1 -9.69836e-12 9.69836e-12 0.698545
58 2 -2.66331e-11 2.66331e-11 0.625
59 2 0.166667 0.333333 0.651291
60 2 0.166667 0.333333 0.74863
85 1 -9.69858e-12 0.5 0.698545
86 2 -2.66331e-11 0.5 0.625
87 2 0.166667 0.833333 0.651291
88 2 0.166667 0.833333 0.74863
101 2 0.666667 0.833333 0.651291
102 2 0.666667 0.833333 0.74863
71 1 0.5 9.69836e-12 0.698545
72 2 0.5 2.66331e-11 0.625
73 2 0.666667 0.333333 0.651291
74 2 0.666667 0.333333 0.74863
99 1 0.5 0.5 0.698545
100 2 0.5 0.5 0.625
61 1 9.69836e-12 -9.69836e-12 0.801455
62 2 2.66331e-11 -2.66331e-11 0.875
89 1 9.69844e-12 0.5 0.801455
90 2 2.66333e-11 0.5 0.875
91 2 0.333333 0.666667 0.848709
92 2 0.333333 0.666667 0.75137
63 2 0.333333 0.166667 0.848709
64 2 0.333333 0.166667 0.75137
75 1 0.5 -9.69836e-12 0.801455
76 2 0.5 -2.66331e-11 0.875
77 2 0.833333 0.166667 0.848709
78 2 0.833333 0.166667 0.75137
103 1 0.5 0.5 0.801455
104 2 0.5 0.5 0.875
105 2 0.833333 0.666667 0.848709
106 2 0.833333 0.666667 0.75137
65 1 9.69836e-12 -9.69836e-12 0.948545
93 1 9.69844e-12 0.5 0.948545
94 2 0.333333 0.666667 0.901291
95 2 0.333333 0.666667 0.99863
66 2 0.333333 0.166667 0.901291
67 2 0.333333 0.166667 0.99863
79 1 0.5 -9.69836e-12 0.948545
80 2 0.833333 0.166667 0.901291
81 2 0.833333 0.166667 0.99863
107 1 0.5 0.5 0.948545
108 2 0.833333 0.666667 0.901291
109 2 0.833333 0.666667 0.99863
ITEM: TIMESTEP
30
ITEM: NUMBER OF ATOMS
112
ITEM: BOX BOUNDS xy xz yz pp pp pp
-3.1981259999999936e+00 6.1247130000000034e+00 -3.1076129999999935e+00
-7.8386557372740098e-02 5.3041570488887295e+00 0.0000000000000000e+00
-4.7124600000000016e-01 3.1887645999999965e+01 0.0000000000000000e+00
ITEM: ATOMS id type xs ys zs
12 1 1 1.46175e-11 0.0514554
13 2 0.166667 0.333333 0.098708
14 2 0.166667 0.333333 0.0013702
40 1 1 0.5 0.0514554
41 2 0.166667 0.833333 0.098708
42 2 0.166667 0.833333 0.0013702
55 2 0.666667 0.833333 0.098708
56 2 0.666667 0.833333 0.0013702
26 1 0.5 1.46175e-11 0.0514554
27 2 0.666667 0.333333 0.098708
28 2 0.666667 0.333333 0.0013702
54 1 0.5 0.5 0.0514554
1 1 1 1.46175e-11 0.198545
2 2 1 3.99858e-11 0.125
3 2 0.166667 0.333333 0.151292
4 2 0.166667 0.333333 0.24863
29 1 1 0.5 0.198545
30 2 1 0.5 0.125
31 2 0.166667 0.833333 0.151292
32 2 0.166667 0.833333 0.24863
45 2 0.666667 0.833333 0.151292
46 2 0.666667 0.833333 0.24863
15 1 0.5 1.46175e-11 0.198545
16 2 0.5 3.99858e-11 0.125
17 2 0.666667 0.333333 0.151292
18 2 0.666667 0.333333 0.24863
43 1 0.5 0.5 0.198545
44 2 0.5 0.5 0.125
5 1 1.46175e-11 1 0.301455
33 1 1.46175e-11 0.5 0.301455
35 2 0.333333 0.666667 0.348708
36 2 0.333333 0.666667 0.25137
7 2 0.333333 0.166667 0.348708
8 2 0.333333 0.166667 0.25137
19 1 0.5 1 0.301455
21 2 0.833333 0.166667 0.348708
22 2 0.833333 0.166667 0.25137
47 1 0.5 0.5 0.301455
49 2 0.833333 0.666667 0.348708
50 2 0.833333 0.666667 0.25137
6 2 3.99858e-11 1 0.375
9 1 1.46175e-11 1 0.448545
34 2 3.99856e-11 0.5 0.375
37 1 1.46175e-11 0.5 0.448545
38 2 0.333333 0.666667 0.401292
39 2 0.333333 0.666667 0.49863
10 2 0.333333 0.166667 0.401292
11 2 0.333333 0.166667 0.49863
20 2 0.5 1 0.375
23 1 0.5 1 0.448545
24 2 0.833333 0.166667 0.401292
25 2 0.833333 0.166667 0.49863
48 2 0.5 0.5 0.375
51 1 0.5 0.5 0.448545
52 2 0.833333 0.666667 0.401292
53 2 0.833333 0.666667 0.49863
68 1 1 1.46175e-11 0.551455
69 2 0.166667 0.333333 0.598708
70 2 0.166667 0.333333 0.50137
96 1 1 0.5 0.551455
97 2 0.166667 0.833333 0.598708
98 2 0.166667 0.833333 0.50137
111 2 0.666667 0.833333 0.598708
112 2 0.666667 0.833333 0.50137
82 1 0.5 1.46175e-11 0.551455
83 2 0.666667 0.333333 0.598708
84 2 0.666667 0.333333 0.50137
110 1 0.5 0.5 0.551455
57 1 1 1.46175e-11 0.698545
58 2 1 3.99858e-11 0.625
59 2 0.166667 0.333333 0.651292
60 2 0.166667 0.333333 0.74863
85 1 1 0.5 0.698545
86 2 1 0.5 0.625
87 2 0.166667 0.833333 0.651292
88 2 0.166667 0.833333 0.74863
101 2 0.666667 0.833333 0.651292
102 2 0.666667 0.833333 0.74863
71 1 0.5 1.46175e-11 0.698545
72 2 0.5 3.99858e-11 0.625
73 2 0.666667 0.333333 0.651292
74 2 0.666667 0.333333 0.74863
99 1 0.5 0.5 0.698545
100 2 0.5 0.5 0.625
61 1 1.46175e-11 1 0.801455
62 2 3.99858e-11 1 0.875
89 1 1.46175e-11 0.5 0.801455
90 2 3.99856e-11 0.5 0.875
91 2 0.333333 0.666667 0.848708
92 2 0.333333 0.666667 0.75137
63 2 0.333333 0.166667 0.848708
64 2 0.333333 0.166667 0.75137
75 1 0.5 1 0.801455
76 2 0.5 1 0.875
77 2 0.833333 0.166667 0.848708
78 2 0.833333 0.166667 0.75137
103 1 0.5 0.5 0.801455
104 2 0.5 0.5 0.875
105 2 0.833333 0.666667 0.848708
106 2 0.833333 0.666667 0.75137
65 1 1.46175e-11 1 0.948545
93 1 1.46175e-11 0.5 0.948545
94 2 0.333333 0.666667 0.901292
95 2 0.333333 0.666667 0.99863
66 2 0.333333 0.166667 0.901292
67 2 0.333333 0.166667 0.99863
79 1 0.5 1 0.948545
80 2 0.833333 0.166667 0.901292
81 2 0.833333 0.166667 0.99863
107 1 0.5 0.5 0.948545
108 2 0.833333 0.666667 0.901292
109 2 0.833333 0.666667 0.99863
ITEM: TIMESTEP
40
ITEM: NUMBER OF ATOMS
112
ITEM: BOX BOUNDS xy xz yz pp pp pp
-3.2584679999999917e+00 6.1548840000000045e+00 -3.1377839999999919e+00
-1.0451540983032016e-01 5.3302859013463060e+00 0.0000000000000000e+00
-6.2832800000000066e-01 3.2044727999999957e+01 0.0000000000000000e+00
ITEM: ATOMS id type xs ys zs
12 1 1 1.74666e-11 0.0514556
13 2 0.166667 0.333333 0.0987073
14 2 0.166667 0.333333 0.0013703
40 1 1 0.5 0.0514556
41 2 0.166667 0.833333 0.0987073
42 2 0.166667 0.833333 0.0013703
55 2 0.666667 0.833333 0.0987073
56 2 0.666667 0.833333 0.0013703
26 1 0.5 1.74666e-11 0.0514556
27 2 0.666667 0.333333 0.0987073
28 2 0.666667 0.333333 0.0013703
54 1 0.5 0.5 0.0514556
1 1 1 1.74666e-11 0.198544
2 2 1 5.33031e-11 0.125
3 2 0.166667 0.333333 0.151293
4 2 0.166667 0.333333 0.24863
29 1 1 0.5 0.198544
30 2 1 0.5 0.125
31 2 0.166667 0.833333 0.151293
32 2 0.166667 0.833333 0.24863
45 2 0.666667 0.833333 0.151293
46 2 0.666667 0.833333 0.24863
15 1 0.5 1.74666e-11 0.198544
16 2 0.5 5.33031e-11 0.125
17 2 0.666667 0.333333 0.151293
18 2 0.666667 0.333333 0.24863
43 1 0.5 0.5 0.198544
44 2 0.5 0.5 0.125
5 1 1.74666e-11 1 0.301456
33 1 1.74666e-11 0.5 0.301456
35 2 0.333333 0.666667 0.348707
36 2 0.333333 0.666667 0.25137
7 2 0.333333 0.166667 0.348707
8 2 0.333333 0.166667 0.25137
19 1 0.5 1 0.301456
21 2 0.833333 0.166667 0.348707
22 2 0.833333 0.166667 0.25137
47 1 0.5 0.5 0.301456
49 2 0.833333 0.666667 0.348707
50 2 0.833333 0.666667 0.25137
6 2 5.3303e-11 1 0.375
9 1 1.74666e-11 1 0.448544
34 2 5.33029e-11 0.5 0.375
37 1 1.74666e-11 0.5 0.448544
38 2 0.333333 0.666667 0.401293
39 2 0.333333 0.666667 0.49863
10 2 0.333333 0.166667 0.401293
11 2 0.333333 0.166667 0.49863
20 2 0.5 1 0.375
23 1 0.5 1 0.448544
24 2 0.833333 0.166667 0.401293
25 2 0.833333 0.166667 0.49863
48 2 0.5 0.5 0.375
51 1 0.5 0.5 0.448544
52 2 0.833333 0.666667 0.401293
53 2 0.833333 0.666667 0.49863
68 1 1 1.74666e-11 0.551456
69 2 0.166667 0.333333 0.598707
70 2 0.166667 0.333333 0.50137
96 1 1 0.5 0.551456
97 2 0.166667 0.833333 0.598707
98 2 0.166667 0.833333 0.50137
111 2 0.666667 0.833333 0.598707
112 2 0.666667 0.833333 0.50137
82 1 0.5 1.74666e-11 0.551456
83 2 0.666667 0.333333 0.598707
84 2 0.666667 0.333333 0.50137
110 1 0.5 0.5 0.551456
57 1 1 1.74666e-11 0.698544
58 2 1 5.33031e-11 0.625
59 2 0.166667 0.333333 0.651293
60 2 0.166667 0.333333 0.74863
85 1 1 0.5 0.698544
86 2 1 0.5 0.625
87 2 0.166667 0.833333 0.651293
88 2 0.166667 0.833333 0.74863
101 2 0.666667 0.833333 0.651293
102 2 0.666667 0.833333 0.74863
71 1 0.5 1.74666e-11 0.698544
72 2 0.5 5.33031e-11 0.625
73 2 0.666667 0.333333 0.651293
74 2 0.666667 0.333333 0.74863
99 1 0.5 0.5 0.698544
100 2 0.5 0.5 0.625
61 1 1.74666e-11 1 0.801456
62 2 5.3303e-11 1 0.875
89 1 1.74666e-11 0.5 0.801456
90 2 5.33029e-11 0.5 0.875
91 2 0.333333 0.666667 0.848707
92 2 0.333333 0.666667 0.75137
63 2 0.333333 0.166667 0.848707
64 2 0.333333 0.166667 0.75137
75 1 0.5 1 0.801456
76 2 0.5 1 0.875
77 2 0.833333 0.166667 0.848707
78 2 0.833333 0.166667 0.75137
103 1 0.5 0.5 0.801456
104 2 0.5 0.5 0.875
105 2 0.833333 0.666667 0.848707
106 2 0.833333 0.666667 0.75137
65 1 1.74666e-11 1 0.948544
93 1 1.74666e-11 0.5 0.948544
94 2 0.333333 0.666667 0.901293
95 2 0.333333 0.666667 0.99863
66 2 0.333333 0.166667 0.901293
67 2 0.333333 0.166667 0.99863
79 1 0.5 1 0.948544
80 2 0.833333 0.166667 0.901293
81 2 0.833333 0.166667 0.99863
107 1 0.5 0.5 0.948544
108 2 0.833333 0.666667 0.901293
109 2 0.833333 0.666667 0.99863
ITEM: TIMESTEP
50
ITEM: NUMBER OF ATOMS
112
ITEM: BOX BOUNDS xy xz yz pp pp pp
-3.3188099999999894e+00 6.1850550000000055e+00 -3.1679549999999894e+00
-1.3064426228790024e-01 5.3564147538038824e+00 0.0000000000000000e+00
-7.8541000000000127e-01 3.2201809999999945e+01 0.0000000000000000e+00
ITEM: ATOMS id type xs ys zs
12 1 1 2.031e-11 0.0514558
13 2 0.166667 0.333333 0.0987066
14 2 0.166667 0.333333 0.00137039
40 1 1 0.5 0.0514558
41 2 0.166667 0.833333 0.0987066
42 2 0.166667 0.833333 0.00137039
55 2 0.666667 0.833333 0.0987066
56 2 0.666667 0.833333 0.00137039
26 1 0.5 2.031e-11 0.0514558
27 2 0.666667 0.333333 0.0987066
28 2 0.666667 0.333333 0.00137039
54 1 0.5 0.5 0.0514558
1 1 1 2.031e-11 0.198544
2 2 1 6.65453e-11 0.125
3 2 0.166667 0.333333 0.151293
4 2 0.166667 0.333333 0.24863
29 1 1 0.5 0.198544
30 2 1 0.5 0.125
31 2 0.166667 0.833333 0.151293
32 2 0.166667 0.833333 0.24863
45 2 0.666667 0.833333 0.151293
46 2 0.666667 0.833333 0.24863
15 1 0.5 2.031e-11 0.198544
16 2 0.5 6.65453e-11 0.125
17 2 0.666667 0.333333 0.151293
18 2 0.666667 0.333333 0.24863
43 1 0.5 0.5 0.198544
44 2 0.5 0.5 0.125
5 1 2.031e-11 1 0.301456
33 1 2.03101e-11 0.5 0.301456
35 2 0.333333 0.666667 0.348707
36 2 0.333333 0.666667 0.25137
7 2 0.333333 0.166667 0.348707
8 2 0.333333 0.166667 0.25137
19 1 0.5 1 0.301456
21 2 0.833333 0.166667 0.348707
22 2 0.833333 0.166667 0.25137
47 1 0.5 0.5 0.301456
49 2 0.833333 0.666667 0.348707
50 2 0.833333 0.666667 0.25137
6 2 6.65452e-11 1 0.375
9 1 2.031e-11 1 0.448544
34 2 6.65449e-11 0.5 0.375
37 1 2.03101e-11 0.5 0.448544
38 2 0.333333 0.666667 0.401293
39 2 0.333333 0.666667 0.49863
10 2 0.333333 0.166667 0.401293
11 2 0.333333 0.166667 0.49863
20 2 0.5 1 0.375
23 1 0.5 1 0.448544
24 2 0.833333 0.166667 0.401293
25 2 0.833333 0.166667 0.49863
48 2 0.5 0.5 0.375
51 1 0.5 0.5 0.448544
52 2 0.833333 0.666667 0.401293
53 2 0.833333 0.666667 0.49863
68 1 1 2.031e-11 0.551456
69 2 0.166667 0.333333 0.598707
70 2 0.166667 0.333333 0.50137
96 1 1 0.5 0.551456
97 2 0.166667 0.833333 0.598707
98 2 0.166667 0.833333 0.50137
111 2 0.666667 0.833333 0.598707
112 2 0.666667 0.833333 0.50137
82 1 0.5 2.031e-11 0.551456
83 2 0.666667 0.333333 0.598707
84 2 0.666667 0.333333 0.50137
110 1 0.5 0.5 0.551456
57 1 1 2.031e-11 0.698544
58 2 1 6.65453e-11 0.625
59 2 0.166667 0.333333 0.651293
60 2 0.166667 0.333333 0.74863
85 1 1 0.5 0.698544
86 2 1 0.5 0.625
87 2 0.166667 0.833333 0.651293
88 2 0.166667 0.833333 0.74863
101 2 0.666667 0.833333 0.651293
102 2 0.666667 0.833333 0.74863
71 1 0.5 2.031e-11 0.698544
72 2 0.5 6.65453e-11 0.625
73 2 0.666667 0.333333 0.651293
74 2 0.666667 0.333333 0.74863
99 1 0.5 0.5 0.698544
100 2 0.5 0.5 0.625
61 1 2.031e-11 1 0.801456
62 2 6.65452e-11 1 0.875
89 1 2.03101e-11 0.5 0.801456
90 2 6.65449e-11 0.5 0.875
91 2 0.333333 0.666667 0.848707
92 2 0.333333 0.666667 0.75137
63 2 0.333333 0.166667 0.848707
64 2 0.333333 0.166667 0.75137
75 1 0.5 1 0.801456
76 2 0.5 1 0.875
77 2 0.833333 0.166667 0.848707
78 2 0.833333 0.166667 0.75137
103 1 0.5 0.5 0.801456
104 2 0.5 0.5 0.875
105 2 0.833333 0.666667 0.848707
106 2 0.833333 0.666667 0.75137
65 1 2.031e-11 1 0.948544
93 1 2.03101e-11 0.5 0.948544
94 2 0.333333 0.666667 0.901293
95 2 0.333333 0.666667 0.99863
66 2 0.333333 0.166667 0.901293
67 2 0.333333 0.166667 0.99863
79 1 0.5 1 0.948544
80 2 0.833333 0.166667 0.901293
81 2 0.833333 0.166667 0.99863
107 1 0.5 0.5 0.948544
108 2 0.833333 0.666667 0.901293
109 2 0.833333 0.666667 0.99863
ITEM: TIMESTEP
60
ITEM: NUMBER OF ATOMS
112
ITEM: BOX BOUNDS xy xz yz pp pp pp
-3.3791519999999875e+00 6.2152260000000066e+00 -3.1981259999999878e+00
-1.5677311474548031e-01 5.3825436062614589e+00 0.0000000000000000e+00
-9.4249200000000188e-01 3.2358891999999933e+01 0.0000000000000000e+00
ITEM: ATOMS id type xs ys zs
12 1 1 2.18738e-11 0.0514561
13 2 0.166667 0.333333 0.0987059
14 2 0.166667 0.333333 0.00137048
40 1 1 0.5 0.0514561
41 2 0.166667 0.833333 0.0987059
42 2 0.166667 0.833333 0.00137048
55 2 0.666667 0.833333 0.0987059
56 2 0.666667 0.833333 0.00137048
26 1 0.5 2.18738e-11 0.0514561
27 2 0.666667 0.333333 0.0987059
28 2 0.666667 0.333333 0.00137048
54 1 0.5 0.5 0.0514561
1 1 1 2.18738e-11 0.198544
2 2 1 7.96796e-11 0.125
3 2 0.166667 0.333333 0.151294
4 2 0.166667 0.333333 0.24863
29 1 1 0.5 0.198544
30 2 1 0.5 0.125
31 2 0.166667 0.833333 0.151294
32 2 0.166667 0.833333 0.24863
45 2 0.666667 0.833333 0.151294
46 2 0.666667 0.833333 0.24863
15 1 0.5 2.18738e-11 0.198544
16 2 0.5 7.96796e-11 0.125
17 2 0.666667 0.333333 0.151294
18 2 0.666667 0.333333 0.24863
43 1 0.5 0.5 0.198544
44 2 0.5 0.5 0.125
5 1 2.18739e-11 1 0.301456
33 1 2.18738e-11 0.5 0.301456
35 2 0.333333 0.666667 0.348706
36 2 0.333333 0.666667 0.25137
7 2 0.333333 0.166667 0.348706
8 2 0.333333 0.166667 0.25137
19 1 0.5 1 0.301456
21 2 0.833333 0.166667 0.348706
22 2 0.833333 0.166667 0.25137
47 1 0.5 0.5 0.301456
49 2 0.833333 0.666667 0.348706
50 2 0.833333 0.666667 0.25137
6 2 7.96795e-11 1 0.375
9 1 2.18739e-11 1 0.448544
34 2 7.96791e-11 0.5 0.375
37 1 2.18738e-11 0.5 0.448544
38 2 0.333333 0.666667 0.401294
39 2 0.333333 0.666667 0.49863
10 2 0.333333 0.166667 0.401294
11 2 0.333333 0.166667 0.49863
20 2 0.5 1 0.375
23 1 0.5 1 0.448544
24 2 0.833333 0.166667 0.401294
25 2 0.833333 0.166667 0.49863
48 2 0.5 0.5 0.375
51 1 0.5 0.5 0.448544
52 2 0.833333 0.666667 0.401294
53 2 0.833333 0.666667 0.49863
68 1 1 2.18738e-11 0.551456
69 2 0.166667 0.333333 0.598706
70 2 0.166667 0.333333 0.50137
96 1 1 0.5 0.551456
97 2 0.166667 0.833333 0.598706
98 2 0.166667 0.833333 0.50137
111 2 0.666667 0.833333 0.598706
112 2 0.666667 0.833333 0.50137
82 1 0.5 2.18738e-11 0.551456
83 2 0.666667 0.333333 0.598706
84 2 0.666667 0.333333 0.50137
110 1 0.5 0.5 0.551456
57 1 1 2.18738e-11 0.698544
58 2 1 7.96796e-11 0.625
59 2 0.166667 0.333333 0.651294
60 2 0.166667 0.333333 0.74863
85 1 1 0.5 0.698544
86 2 1 0.5 0.625
87 2 0.166667 0.833333 0.651294
88 2 0.166667 0.833333 0.74863
101 2 0.666667 0.833333 0.651294
102 2 0.666667 0.833333 0.74863
71 1 0.5 2.18738e-11 0.698544
72 2 0.5 7.96796e-11 0.625
73 2 0.666667 0.333333 0.651294
74 2 0.666667 0.333333 0.74863
99 1 0.5 0.5 0.698544
100 2 0.5 0.5 0.625
61 1 2.18739e-11 1 0.801456
62 2 7.96795e-11 1 0.875
89 1 2.18738e-11 0.5 0.801456
90 2 7.96791e-11 0.5 0.875
91 2 0.333333 0.666667 0.848706
92 2 0.333333 0.666667 0.75137
63 2 0.333333 0.166667 0.848706
64 2 0.333333 0.166667 0.75137
75 1 0.5 1 0.801456
76 2 0.5 1 0.875
77 2 0.833333 0.166667 0.848706
78 2 0.833333 0.166667 0.75137
103 1 0.5 0.5 0.801456
104 2 0.5 0.5 0.875
105 2 0.833333 0.666667 0.848706
106 2 0.833333 0.666667 0.75137
65 1 2.18739e-11 1 0.948544
93 1 2.18738e-11 0.5 0.948544
94 2 0.333333 0.666667 0.901294
95 2 0.333333 0.666667 0.99863
66 2 0.333333 0.166667 0.901294
67 2 0.333333 0.166667 0.99863
79 1 0.5 1 0.948544
80 2 0.833333 0.166667 0.901294
81 2 0.833333 0.166667 0.99863
107 1 0.5 0.5 0.948544
108 2 0.833333 0.666667 0.901294
109 2 0.833333 0.666667 0.99863
ITEM: TIMESTEP
70
ITEM: NUMBER OF ATOMS
112
ITEM: BOX BOUNDS xy xz yz pp pp pp
-3.4394939999999856e+00 6.2453970000000076e+00 -3.2282969999999858e+00
-1.8290196720306037e-01 5.4086724587190353e+00 0.0000000000000000e+00
-1.0995740000000018e+00 3.2515973999999922e+01 0.0000000000000000e+00
ITEM: ATOMS id type xs ys zs
12 1 1 2.16625e-11 0.0514563
13 2 0.166667 0.333333 0.0987053
14 2 0.166667 0.333333 0.00137056
40 1 1 0.5 0.0514563
41 2 0.166667 0.833333 0.0987053
42 2 0.166667 0.833333 0.00137056
55 2 0.666667 0.833333 0.0987053
56 2 0.666667 0.833333 0.00137056
26 1 0.5 2.16625e-11 0.0514563
27 2 0.666667 0.333333 0.0987053
28 2 0.666667 0.333333 0.00137056
54 1 0.5 0.5 0.0514563
1 1 1 2.16625e-11 0.198544
2 2 1 9.25898e-11 0.125
3 2 0.166667 0.333333 0.151295
4 2 0.166667 0.333333 0.248629
29 1 1 0.5 0.198544
30 2 1 0.5 0.125
31 2 0.166667 0.833333 0.151295
32 2 0.166667 0.833333 0.248629
45 2 0.666667 0.833333 0.151295
46 2 0.666667 0.833333 0.248629
15 1 0.5 2.16625e-11 0.198544
16 2 0.5 9.25898e-11 0.125
17 2 0.666667 0.333333 0.151295
18 2 0.666667 0.333333 0.248629
43 1 0.5 0.5 0.198544
44 2 0.5 0.5 0.125
5 1 2.16621e-11 1 0.301456
33 1 2.16624e-11 0.5 0.301456
35 2 0.333333 0.666667 0.348705
36 2 0.333333 0.666667 0.251371
7 2 0.333333 0.166667 0.348705
8 2 0.333333 0.166667 0.251371
19 1 0.5 1 0.301456
21 2 0.833333 0.166667 0.348705
22 2 0.833333 0.166667 0.251371
47 1 0.5 0.5 0.301456
49 2 0.833333 0.666667 0.348705
50 2 0.833333 0.666667 0.251371
6 2 9.25895e-11 1 0.375
9 1 2.16621e-11 1 0.448544
34 2 9.25891e-11 0.5 0.375
37 1 2.16624e-11 0.5 0.448544
38 2 0.333333 0.666667 0.401295
39 2 0.333333 0.666667 0.498629
10 2 0.333333 0.166667 0.401295
11 2 0.333333 0.166667 0.498629
20 2 0.5 1 0.375
23 1 0.5 1 0.448544
24 2 0.833333 0.166667 0.401295
25 2 0.833333 0.166667 0.498629
48 2 0.5 0.5 0.375
51 1 0.5 0.5 0.448544
52 2 0.833333 0.666667 0.401295
53 2 0.833333 0.666667 0.498629
68 1 1 2.16625e-11 0.551456
69 2 0.166667 0.333333 0.598705
70 2 0.166667 0.333333 0.501371
96 1 1 0.5 0.551456
97 2 0.166667 0.833333 0.598705
98 2 0.166667 0.833333 0.501371
111 2 0.666667 0.833333 0.598705
112 2 0.666667 0.833333 0.501371
82 1 0.5 2.16625e-11 0.551456
83 2 0.666667 0.333333 0.598705
84 2 0.666667 0.333333 0.501371
110 1 0.5 0.5 0.551456
57 1 1 2.16625e-11 0.698544
58 2 1 9.25898e-11 0.625
59 2 0.166667 0.333333 0.651295
60 2 0.166667 0.333333 0.748629
85 1 1 0.5 0.698544
86 2 1 0.5 0.625
87 2 0.166667 0.833333 0.651295
88 2 0.166667 0.833333 0.748629
101 2 0.666667 0.833333 0.651295
102 2 0.666667 0.833333 0.748629
71 1 0.5 2.16625e-11 0.698544
72 2 0.5 9.25898e-11 0.625
73 2 0.666667 0.333333 0.651295
74 2 0.666667 0.333333 0.748629
99 1 0.5 0.5 0.698544
100 2 0.5 0.5 0.625
61 1 2.16621e-11 1 0.801456
62 2 9.25895e-11 1 0.875
89 1 2.16624e-11 0.5 0.801456
90 2 9.25891e-11 0.5 0.875
91 2 0.333333 0.666667 0.848705
92 2 0.333333 0.666667 0.751371
63 2 0.333333 0.166667 0.848705
64 2 0.333333 0.166667 0.751371
75 1 0.5 1 0.801456
76 2 0.5 1 0.875
77 2 0.833333 0.166667 0.848705
78 2 0.833333 0.166667 0.751371
103 1 0.5 0.5 0.801456
104 2 0.5 0.5 0.875
105 2 0.833333 0.666667 0.848705
106 2 0.833333 0.666667 0.751371
65 1 2.16621e-11 1 0.948544
93 1 2.16624e-11 0.5 0.948544
94 2 0.333333 0.666667 0.901295
95 2 0.333333 0.666667 0.998629
66 2 0.333333 0.166667 0.901295
67 2 0.333333 0.166667 0.998629
79 1 0.5 1 0.948544
80 2 0.833333 0.166667 0.901295
81 2 0.833333 0.166667 0.998629
107 1 0.5 0.5 0.948544
108 2 0.833333 0.666667 0.901295
109 2 0.833333 0.666667 0.998629
ITEM: TIMESTEP
80
ITEM: NUMBER OF ATOMS
112
ITEM: BOX BOUNDS xy xz yz pp pp pp
-3.4998359999999833e+00 6.2755680000000087e+00 -3.2584679999999837e+00
-2.0903081966064044e-01 5.4348013111766118e+00 0.0000000000000000e+00
-1.2566560000000013e+00 3.2673055999999910e+01 0.0000000000000000e+00
ITEM: ATOMS id type xs ys zs
12 1 1 2.16361e-11 0.0514565
13 2 0.166667 0.333333 0.0987046
14 2 0.166667 0.333333 0.00137063
40 1 1 0.5 0.0514565
41 2 0.166667 0.833333 0.0987046
42 2 0.166667 0.833333 0.00137063
55 2 0.666667 0.833333 0.0987046
56 2 0.666667 0.833333 0.00137063
26 1 0.5 2.16361e-11 0.0514565
27 2 0.666667 0.333333 0.0987046
28 2 0.666667 0.333333 0.00137063
54 1 0.5 0.5 0.0514565
1 1 1 2.16361e-11 0.198544
2 2 1 1.05275e-10 0.125
3 2 0.166667 0.333333 0.151295
4 2 0.166667 0.333333 0.248629
29 1 1 0.5 0.198544
30 2 1 0.5 0.125
31 2 0.166667 0.833333 0.151295
32 2 0.166667 0.833333 0.248629
45 2 0.666667 0.833333 0.151295
46 2 0.666667 0.833333 0.248629
15 1 0.5 2.16361e-11 0.198544
16 2 0.5 1.05275e-10 0.125
17 2 0.666667 0.333333 0.151295
18 2 0.666667 0.333333 0.248629
43 1 0.5 0.5 0.198544
44 2 0.5 0.5 0.125
5 1 2.16358e-11 1 0.301456
33 1 2.16362e-11 0.5 0.301456
35 2 0.333333 0.666667 0.348705
36 2 0.333333 0.666667 0.251371
7 2 0.333333 0.166667 0.348705
8 2 0.333333 0.166667 0.251371
19 1 0.5 1 0.301456
21 2 0.833333 0.166667 0.348705
22 2 0.833333 0.166667 0.251371
47 1 0.5 0.5 0.301456
49 2 0.833333 0.666667 0.348705
50 2 0.833333 0.666667 0.251371
6 2 1.05275e-10 1 0.375
9 1 2.16358e-11 1 0.448544
34 2 1.05274e-10 0.5 0.375
37 1 2.16362e-11 0.5 0.448544