ITEM: TIMESTEP
2100
ITEM: NUMBER OF ATOMS
280
ITEM: BOX BOUNDS xy xz yz pp pp pp
-2.3876342188659767e+00 5.7194694137294775e+00 -2.7023648051365079e+00
2.7256462066260628e-01 4.9532058708534112e+00 0.0000000000000000e+00
-1.1505892135177770e+02 1.9359992135176623e+02 0.0000000000000000e+00
ITEM: ATOMS id type xs ys zs
14 2 0.166667 0.333335 0.00099147
42 2 0.166665 0.833334 0.000991513
56 2 0.666669 0.833334 0.000991517
28 2 0.666665 0.333332 0.000991482
26 1 0.500002 1 0.0205715
54 1 0.499999 0.500002 0.0205715
12 1 6.98956e-07 0.999998 0.0205715
40 1 5.19539e-07 0.499999 0.0205715
13 2 0.166664 0.333331 0.0395058
41 2 0.166665 0.833332 0.0395058
55 2 0.666667 0.833332 0.0395058
27 2 0.666667 0.333334 0.0395058
16 2 0.499999 1 0.05
44 2 0.500001 0.5 0.05
2 2 1 1.42102e-07 0.05
30 2 0.999999 0.500001 0.05
3 2 0.166667 0.333333 0.0604942
31 2 0.166665 0.833332 0.0604942
45 2 0.666665 0.833334 0.0604942
17 2 0.666667 0.333334 0.0604942
15 1 0.499998 0.999999 0.0794285
43 1 0.499999 0.499999 0.0794285
1 1 0.999999 1.32189e-06 0.0794285
29 1 0.999998 0.499999 0.0794285
4 2 0.166665 0.333332 0.0990085
32 2 0.166668 0.833334 0.0990085
36 2 0.333332 0.666665 0.100991
8 2 0.333333 0.166668 0.100992
46 2 0.666668 0.833335 0.0990085
18 2 0.666668 0.333335 0.0990085
22 2 0.833331 0.166666 0.100991
50 2 0.833335 0.666666 0.100991
5 1 0.999999 1.18785e-06 0.120571
33 1 1 0.5 0.120571
19 1 0.500002 4.16051e-07 0.120571
47 1 0.500001 0.499999 0.120571
35 2 0.333336 0.666668 0.139506
7 2 0.333332 0.166666 0.139506
21 2 0.833334 0.166665 0.139506
49 2 0.833333 0.666667 0.139506
6 2 1.57738e-06 4.71524e-07 0.15
20 2 0.499999 0.999999 0.15
48 2 0.499999 0.5 0.15
34 2 0.999999 0.499998 0.15
38 2 0.333334 0.666667 0.160494
10 2 0.333332 0.166666 0.160494
24 2 0.833335 0.166666 0.160494
52 2 0.833334 0.666668 0.160494
37 1 1.6318e-06 0.5 0.179429
9 1 0.999997 0.999998 0.179429
23 1 0.500002 1.76523e-06 0.179429
51 1 0.500001 0.499998 0.179429
70 2 0.166667 0.333333 0.200992
39 2 0.333333 0.666666 0.199008
98 2 0.166665 0.833332 0.200991
112 2 0.666666 0.833332 0.200991
11 2 0.333335 0.166667 0.199009
25 2 0.833332 0.166666 0.199009
84 2 0.666666 0.333333 0.200992
53 2 0.833333 0.666666 0.199008
110 1 0.5 0.500001 0.220571
68 1 2.25999e-06 9.46361e-07 0.220571
96 1 6.60832e-07 0.499999 0.220571
82 1 0.499999 1.9915e-06 0.220571
69 2 0.166667 0.333332 0.239506
97 2 0.166667 0.833332 0.239506
111 2 0.666667 0.833332 0.239506
83 2 0.666665 0.333334 0.239506
100 2 0.500001 0.499999 0.25
58 2 0.999999 1.2527e-06 0.25
86 2 1 0.499999 0.25
72 2 0.5 4.54171e-07 0.25
59 2 0.166666 0.333334 0.260494
87 2 0.166665 0.833333 0.260494
101 2 0.666668 0.833334 0.260494
73 2 0.666667 0.333332 0.260494
99 1 0.499998 0.499998 0.279429
85 1 1.74601e-07 0.500002 0.279429
71 1 0.500002 1.01585e-06 0.279429
57 1 0.999998 0.999998 0.279429
60 2 0.166666 0.333333 0.299009
88 2 0.166665 0.833332 0.299008
92 2 0.333334 0.666665 0.300991
64 2 0.333334 0.166668 0.300992
102 2 0.666667 0.833333 0.299009
74 2 0.666664 0.333332 0.299008
78 2 0.833333 0.166667 0.300991
106 2 0.833332 0.666665 0.300991
61 1 3.47677e-07 4.74804e-07 0.320571
75 1 0.500001 0.999998 0.320571
89 1 0.999999 0.5 0.320571
103 1 0.500002 0.500002 0.320571
91 2 0.333332 0.666666 0.339506
63 2 0.333334 0.166669 0.339506
77 2 0.833335 0.166668 0.339506
105 2 0.833333 0.666665 0.339506
62 2 0.999997 0.999998 0.35
90 2 0.999998 0.499998 0.35
76 2 0.5 2.6448e-07 0.35
104 2 0.500002 0.5 0.35
94 2 0.333333 0.666667 0.360494
66 2 0.333334 0.166668 0.360494
80 2 0.833332 0.166665 0.360494
108 2 0.833334 0.666667 0.360494
93 1 2.0732e-07 0.500001 0.379429
79 1 0.499999 1 0.379429
107 1 0.499999 0.500002 0.379429
65 1 0.999999 0.999998 0.379429
126 2 0.166665 0.333331 0.400991
95 2 0.333334 0.666667 0.399008
154 2 0.166668 0.833334 0.400991
67 2 0.333334 0.166667 0.399008
168 2 0.666666 0.833333 0.400991
81 2 0.833331 0.166666 0.399009
140 2 0.666666 0.333332 0.400991
109 2 0.833335 0.666668 0.399009
166 1 0.499999 0.500001 0.420571
138 1 0.500001 1.99494e-06 0.420571
124 1 0.999999 6.39199e-07 0.420571
152 1 0.999999 0.500002 0.420571
125 2 0.166666 0.333336 0.439506
153 2 0.166667 0.833332 0.439506
167 2 0.666667 0.833335 0.439506
139 2 0.666665 0.333333 0.439506
128 2 0.499999 0.999998 0.45
156 2 0.500002 0.500001 0.45
114 2 0.999999 0.999999 0.45
142 2 1 0.5 0.45
115 2 0.166669 0.333335 0.460494
143 2 0.166666 0.833334 0.460494
157 2 0.666667 0.833335 0.460494
129 2 0.666664 0.333332 0.460494
127 1 0.499999 0.999999 0.479429
113 1 4.16982e-07 1 0.479429
155 1 0.5 0.499999 0.479429
141 1 0.999998 0.499998 0.479429
116 2 0.166665 0.333332 0.499008
144 2 0.166665 0.833332 0.499008
158 2 0.666664 0.833333 0.499008
130 2 0.666668 0.333333 0.499009
148 2 0.333331 0.666664 0.500992
120 2 0.333332 0.166667 0.500991
134 2 0.833333 0.166665 0.500992
162 2 0.833334 0.666665 0.500991
117 1 4.05698e-07 1.07825e-06 0.520571
145 1 2.42259e-06 0.500001 0.520571
159 1 0.5 0.500002 0.520571
131 1 0.500001 2.10388e-06 0.520571
147 2 0.333335 0.666668 0.539506
119 2 0.333333 0.166667 0.539506
133 2 0.833332 0.166667 0.539506
161 2 0.833331 0.666665 0.539506
118 2 1.93449e-08 1.72797e-06 0.55
146 2 8.06921e-07 0.499999 0.55
132 2 0.5 0.999999 0.55
160 2 0.5 0.499998 0.55
150 2 0.333332 0.666666 0.560494
122 2 0.333334 0.166668 0.560494
136 2 0.833335 0.166667 0.560494
164 2 0.833333 0.666665 0.560494
149 1 1.33999e-06 0.500002 0.579429
135 1 0.499999 0.999999 0.579429
121 1 0.999998 0.999998 0.579429
163 1 0.500001 0.500002 0.579429
182 2 0.166666 0.333334 0.600991
151 2 0.333336 0.666668 0.599009
210 2 0.166665 0.833332 0.600991
224 2 0.666667 0.833331 0.600991
123 2 0.333334 0.166665 0.599008
137 2 0.833333 0.166666 0.599009
196 2 0.666666 0.333334 0.600991
165 2 0.833334 0.666668 0.599008
180 1 1.78703e-06 6.74187e-07 0.620571
208 1 7.08012e-08 0.499998 0.620571
194 1 0.500002 2.09093e-06 0.620571
222 1 0.5 0.5 0.620571
181 2 0.166668 0.333333 0.639506
209 2 0.166667 0.833333 0.639506
223 2 0.666666 0.833335 0.639506
195 2 0.666668 0.333332 0.639506
212 2 0.499998 0.499999 0.65
170 2 1.58051e-06 4.01478e-07 0.65
198 2 1.47801e-06 0.500001 0.65
184 2 0.499998 0.999999 0.65
171 2 0.166665 0.333332 0.660494
199 2 0.166665 0.833333 0.660494
213 2 0.666666 0.833334 0.660494
185 2 0.666664 0.333333 0.660494
211 1 0.499999 0.5 0.679429
183 1 0.5 1.60687e-06 0.679429
169 1 0.999999 1.74506e-06 0.679429
197 1 1 0.500002 0.679429
172 2 0.166667 0.333333 0.699008
200 2 0.166665 0.833332 0.699009
204 2 0.333333 0.666665 0.700991
176 2 0.333334 0.166667 0.700992
214 2 0.666669 0.833335 0.699008
186 2 0.666667 0.333334 0.699008
190 2 0.833335 0.166668 0.700991
218 2 0.833335 0.666667 0.700991
173 1 2.31341e-06 1.53069e-06 0.720571
187 1 0.499999 1 0.720571
215 1 0.5 0.500002 0.720571
201 1 0.999999 0.499999 0.720571
203 2 0.333335 0.666667 0.739506
175 2 0.333334 0.166665 0.739506
189 2 0.833334 0.166665 0.739506
217 2 0.833335 0.666666 0.739506
174 2 4.08593e-07 8.46451e-07 0.75
188 2 0.500001 0.999998 0.75
216 2 0.499998 0.499998 0.75
202 2 0.999999 0.500002 0.75
206 2 0.333332 0.666665 0.760494
178 2 0.333332 0.166665 0.760494
192 2 0.833336 0.166668 0.760494
220 2 0.833334 0.666667 0.760494
191 1 0.5 0.999998 0.779429
219 1 0.499999 0.499999 0.779429
177 1 0.999999 0.999999 0.779429
205 1 0.999998 0.499998 0.779429
238 2 0.166668 0.333332 0.800992
207 2 0.333333 0.666665 0.799008
266 2 0.166667 0.833333 0.800991
179 2 0.333334 0.166668 0.799009
280 2 0.666668 0.833334 0.800991
193 2 0.833333 0.166668 0.799009
252 2 0.666665 0.333333 0.800991
221 2 0.833333 0.666665 0.799009
250 1 0.499998 0.999998 0.820571
278 1 0.499998 0.499998 0.820571
236 1 0.999999 0.999999 0.820571
264 1 0.999999 0.5 0.820571
237 2 0.166669 0.333335 0.839506
265 2 0.166666 0.833333 0.839506
279 2 0.666666 0.833332 0.839506
251 2 0.666668 0.333334 0.839506
254 2 1.10246e-06 0.500001 0.85
268 2 0.500002 0.500001 0.85
226 2 0.999999 0.999998 0.85
240 2 0.499999 9.36625e-07 0.85
227 2 0.166669 0.333334 0.860494
255 2 0.166665 0.833335 0.860494
269 2 0.666669 0.833335 0.860494
241 2 0.666666 0.333335 0.860494
239 1 0.499999 2.76695e-07 0.879429
267 1 0.5 0.499998 0.879429
225 1 1 8.53762e-07 0.879429
253 1 1 0.499999 0.879429
228 2 0.166668 0.333335 0.899009
256 2 0.166666 0.833336 0.899009
260 2 0.333334 0.666666 0.900991
232 2 0.333331 0.166665 0.900992
270 2 0.666667 0.833335 0.899009
242 2 0.666666 0.333333 0.899008
246 2 0.833332 0.166666 0.900992
274 2 0.833333 0.666665 0.900991
257 1 2.82262e-07 0.500001 0.920571
243 1 0.499999 0.999999 0.920571
229 1 1 1.74004e-07 0.920571
271 1 0.500001 0.499999 0.920571
259 2 0.333334 0.666667 0.939506
231 2 0.333333 0.166665 0.939506
245 2 0.833335 0.166666 0.939506
273 2 0.833333 0.666667 0.939506
230 2 4.21082e-07 0.999999 0.95
244 2 0.5 0.999999 0.95
272 2 0.499998 0.499999 0.95
258 2 1 0.499998 0.95
262 2 0.333332 0.666665 0.960494
234 2 0.333333 0.166667 0.960494
248 2 0.833335 0.166669 0.960494
276 2 0.833332 0.666666 0.960494
233 1 9.4087e-08 1.69058e-06 0.979429
261 1 9.30755e-07 0.500001 0.979429
247 1 0.499998 0.999999 0.979429
275 1 0.500002 0.5 0.979429
263 2 0.333335 0.666668 0.999008
235 2 0.333334 0.166668 0.999009
249 2 0.833332 0.166666 0.999009
277 2 0.833334 0.666667 0.999009
ITEM: TIMESTEP
2110
ITEM: NUMBER OF ATOMS
280
ITEM: BOX BOUNDS xy xz yz pp pp pp
-2.3876342188659767e+00 5.7194694137294775e+00 -2.7023648051365079e+00
2.7256462066260628e-01 4.9532058708534112e+00 0.0000000000000000e+00
-1.1505892135177770e+02 1.9359992135176623e+02 0.0000000000000000e+00
ITEM: ATOMS id type xs ys zs
14 2 0.166667 0.333335 0.00131544
42 2 0.166666 0.833334 0.00131547
56 2 0.666668 0.833334 0.00131547
28 2 0.666665 0.333333 0.00131545
26 1 0.500002 1 0.0205715
54 1 0.499999 0.500001 0.0205715
12 1 8.08825e-07 0.999998 0.0205715
40 1 3.64912e-07 0.499999 0.0205715
13 2 0.166664 0.333331 0.0395058
41 2 0.166665 0.833332 0.0395058
55 2 0.666667 0.833332 0.0395058
27 2 0.666667 0.333334 0.0395058
16 2 0.499999 1 0.05
44 2 0.500001 0.5 0.05
2 2 1 1.42102e-07 0.05
30 2 0.999999 0.500001 0.05
3 2 0.166667 0.333333 0.0604942
31 2 0.166665 0.833332 0.0604942
45 2 0.666665 0.833334 0.0604942
17 2 0.666667 0.333334 0.0604942
15 1 0.499998 0.999999 0.0794285
43 1 0.499999 0.499999 0.0794285
1 1 0.999999 1.16682e-06 0.0794285
29 1 0.999998 0.499999 0.0794285
4 2 0.166665 0.333332 0.0986845
32 2 0.166668 0.833334 0.0986845
36 2 0.333332 0.666665 0.101315
8 2 0.333333 0.166668 0.101315
46 2 0.666667 0.833334 0.0986845
18 2 0.666667 0.333334 0.0986845
22 2 0.833332 0.166667 0.101315
50 2 0.833335 0.666667 0.101315
5 1 0.999999 1.09519e-06 0.120571
33 1 1 0.5 0.120571
19 1 0.500002 2.23536e-07 0.120571
47 1 0.500001 0.499999 0.120571
35 2 0.333336 0.666668 0.139506
7 2 0.333332 0.166666 0.139506
21 2 0.833334 0.166665 0.139506
49 2 0.833333 0.666667 0.139506
6 2 1.57738e-06 4.71524e-07 0.15
20 2 0.499999 0.999999 0.15
48 2 0.499999 0.5 0.15
34 2 0.999999 0.499998 0.15
38 2 0.333334 0.666667 0.160494
10 2 0.333332 0.166666 0.160494
24 2 0.833335 0.166666 0.160494
52 2 0.833334 0.666668 0.160494
37 1 1.80663e-06 0.5 0.179429
9 1 0.999998 0.999998 0.179429
23 1 0.500002 1.53169e-06 0.179429
51 1 0.5 0.499998 0.179429
70 2 0.166667 0.333333 0.201315
39 2 0.333333 0.666665 0.198685
98 2 0.166665 0.833332 0.201315
112 2 0.666666 0.833332 0.201315
11 2 0.333334 0.166666 0.198685
25 2 0.833332 0.166666 0.198685
84 2 0.666666 0.333333 0.201315
53 2 0.833333 0.666666 0.198685
110 1 0.5 0.500001 0.220571
68 1 1.93656e-06 6.95302e-07 0.220571
96 1 5.83981e-07 0.499999 0.220571
82 1 0.5 1.85359e-06 0.220571
69 2 0.166667 0.333332 0.239506
97 2 0.166667 0.833332 0.239506
111 2 0.666667 0.833332 0.239506
83 2 0.666665 0.333334 0.239506
100 2 0.500001 0.499999 0.25
58 2 0.999999 1.2527e-06 0.25
86 2 1 0.499999 0.25
72 2 0.5 4.54171e-07 0.25
59 2 0.166666 0.333334 0.260494
87 2 0.166665 0.833333 0.260494
101 2 0.666668 0.833334 0.260494
73 2 0.666667 0.333332 0.260494
99 1 0.499998 0.499998 0.279429
85 1 2.16329e-07 0.500002 0.279429
71 1 0.500001 9.62385e-07 0.279429
57 1 0.999998 0.999999 0.279429
60 2 0.166666 0.333333 0.298685
88 2 0.166666 0.833332 0.298685
92 2 0.333333 0.666665 0.301315
64 2 0.333334 0.166668 0.301315
102 2 0.666667 0.833333 0.298685
74 2 0.666665 0.333332 0.298685
78 2 0.833333 0.166667 0.301315
106 2 0.833332 0.666665 0.301315
61 1 6.41881e-07 6.48955e-07 0.320571
75 1 0.500001 0.999998 0.320571
89 1 0.999999 0.5 0.320571
103 1 0.500002 0.500002 0.320571
91 2 0.333332 0.666666 0.339506
63 2 0.333334 0.166669 0.339506
77 2 0.833335 0.166668 0.339506
105 2 0.833333 0.666665 0.339506
62 2 0.999997 0.999998 0.35
90 2 0.999998 0.499998 0.35
76 2 0.5 2.6448e-07 0.35
104 2 0.500002 0.5 0.35
94 2 0.333333 0.666667 0.360494
66 2 0.333334 0.166668 0.360494
80 2 0.833332 0.166665 0.360494
108 2 0.833334 0.666667 0.360494
93 1 1.74806e-08 0.5 0.379429
79 1 0.499999 1 0.379429
107 1 0.499999 0.500002 0.379429
65 1 0.999999 0.999998 0.379429
126 2 0.166666 0.333332 0.401315
95 2 0.333333 0.666667 0.398685
154 2 0.166668 0.833334 0.401315
67 2 0.333333 0.166666 0.398685
168 2 0.666666 0.833333 0.401315
81 2 0.833332 0.166666 0.398685
140 2 0.666666 0.333332 0.401315
109 2 0.833335 0.666668 0.398685
166 1 0.499999 0.500001 0.420571
138 1 0.500001 1.92659e-06 0.420571
124 1 0.999999 7.0644e-07 0.420571
152 1 0.999999 0.500002 0.420571
125 2 0.166666 0.333336 0.439506
153 2 0.166667 0.833332 0.439506
167 2 0.666667 0.833335 0.439506
139 2 0.666665 0.333333 0.439506
128 2 0.499999 0.999998 0.45
156 2 0.500002 0.500001 0.45
114 2 0.999999 0.999999 0.45
142 2 1 0.5 0.45
115 2 0.166669 0.333335 0.460494
143 2 0.166666 0.833334 0.460494
157 2 0.666667 0.833335 0.460494
129 2 0.666664 0.333332 0.460494
127 1 0.499999 0.999998 0.479429
113 1 3.58244e-07 1 0.479429
155 1 0.5 0.499999 0.479429
141 1 0.999998 0.499998 0.479429
116 2 0.166666 0.333332 0.498685
144 2 0.166665 0.833332 0.498685
158 2 0.666665 0.833332 0.498685
130 2 0.666668 0.333333 0.498685
148 2 0.333331 0.666665 0.501315
120 2 0.333332 0.166666 0.501315
134 2 0.833333 0.166665 0.501315
162 2 0.833334 0.666666 0.501315
117 1 3.90082e-07 9.66408e-07 0.520571
145 1 2.19914e-06 0.500001 0.520571
159 1 0.5 0.500002 0.520571
131 1 0.500001 2.21561e-06 0.520571
147 2 0.333335 0.666668 0.539506
119 2 0.333333 0.166667 0.539506
133 2 0.833332 0.166667 0.539506
161 2 0.833331 0.666665 0.539506
118 2 1.93449e-08 1.72797e-06 0.55
146 2 8.06921e-07 0.499999 0.55
132 2 0.5 0.999999 0.55
160 2 0.5 0.499998 0.55
150 2 0.333332 0.666666 0.560494
122 2 0.333334 0.166668 0.560494
136 2 0.833335 0.166667 0.560494
164 2 0.833333 0.666665 0.560494
149 1 1.13515e-06 0.500001 0.579429
135 1 0.499999 0.999999 0.579429
121 1 0.999998 0.999998 0.579429
163 1 0.500001 0.500001 0.579429
182 2 0.166667 0.333333 0.601315
151 2 0.333335 0.666667 0.598685
210 2 0.166666 0.833333 0.601315
224 2 0.666667 0.833332 0.601315
123 2 0.333334 0.166665 0.598685
137 2 0.833333 0.166666 0.598685
196 2 0.666666 0.333334 0.601315
165 2 0.833334 0.666667 0.598685
180 1 1.72283e-06 4.36496e-07 0.620571
208 1 2.17954e-07 0.499998 0.620571
194 1 0.500002 1.83109e-06 0.620571
222 1 0.500001 0.500001 0.620571
181 2 0.166668 0.333333 0.639506
209 2 0.166667 0.833333 0.639506
223 2 0.666666 0.833335 0.639506
195 2 0.666668 0.333332 0.639506
212 2 0.499998 0.499999 0.65
170 2 1.58051e-06 4.01478e-07 0.65
198 2 1.47801e-06 0.500001 0.65
184 2 0.499998 0.999999 0.65
171 2 0.166665 0.333332 0.660494
199 2 0.166665 0.833333 0.660494
213 2 0.666666 0.833334 0.660494
185 2 0.666664 0.333333 0.660494
211 1 0.499999 0.5 0.679429
183 1 0.5 1.49628e-06 0.679429
169 1 0.999999 1.65067e-06 0.679429
197 1 1 0.500002 0.679429
172 2 0.166667 0.333333 0.698685
200 2 0.166666 0.833333 0.698685
204 2 0.333333 0.666665 0.701315
176 2 0.333333 0.166667 0.701315
214 2 0.666668 0.833334 0.698685
186 2 0.666667 0.333334 0.698685
190 2 0.833335 0.166668 0.701315
218 2 0.833334 0.666667 0.701315
173 1 2.15261e-06 1.40966e-06 0.720571
187 1 0.5 1 0.720571
215 1 0.5 0.500002 0.720571
201 1 0.999999 0.499999 0.720571
203 2 0.333335 0.666667 0.739506
175 2 0.333334 0.166665 0.739506
189 2 0.833334 0.166665 0.739506
217 2 0.833335 0.666666 0.739506
174 2 4.08593e-07 8.46451e-07 0.75
188 2 0.500001 0.999998 0.75
216 2 0.499998 0.499998 0.75
202 2 0.999999 0.500002 0.75
206 2 0.333332 0.666665 0.760494
178 2 0.333332 0.166665 0.760494
192 2 0.833336 0.166668 0.760494
220 2 0.833334 0.666667 0.760494
191 1 0.5 0.999998 0.779429
219 1 0.499999 0.499999 0.779429
177 1 0.999999 0.999999 0.779429
205 1 0.999998 0.499998 0.779429
238 2 0.166668 0.333333 0.801315
207 2 0.333333 0.666666 0.798685
266 2 0.166667 0.833333 0.801315
179 2 0.333333 0.166667 0.798685
280 2 0.666667 0.833333 0.801315
193 2 0.833334 0.166667 0.798685
252 2 0.666666 0.333333 0.801315
221 2 0.833333 0.666666 0.798685
250 1 0.499998 0.999998 0.820571
278 1 0.499998 0.499998 0.820571
236 1 0.999999 0.999999 0.820571
264 1 0.999999 0.5 0.820571
237 2 0.166669 0.333335 0.839506
265 2 0.166666 0.833333 0.839506
279 2 0.666666 0.833332 0.839506
251 2 0.666668 0.333334 0.839506
254 2 1.10246e-06 0.500001 0.85
268 2 0.500002 0.500001 0.85
226 2 0.999999 0.999998 0.85
240 2 0.499999 9.36625e-07 0.85
227 2 0.166669 0.333334 0.860494
255 2 0.166665 0.833335 0.860494
269 2 0.666669 0.833335 0.860494
241 2 0.666666 0.333335 0.860494
239 1 0.499999 3.53505e-08 0.879429
267 1 0.5 0.499998 0.879429
225 1 1 6.49062e-07 0.879429
253 1 1 0.499999 0.879429
228 2 0.166667 0.333334 0.898685
256 2 0.166666 0.833335 0.898685
260 2 0.333334 0.666667 0.901315
232 2 0.333332 0.166666 0.901315
270 2 0.666667 0.833334 0.898685
242 2 0.666666 0.333332 0.898685
246 2 0.833333 0.166667 0.901315
274 2 0.833333 0.666666 0.901315
257 1 3.58561e-07 0.500001 0.920571
243 1 0.499999 0.999999 0.920571
229 1 1 2.15503e-07 0.920571
271 1 0.500001 0.499999 0.920571
259 2 0.333334 0.666667 0.939506
231 2 0.333333 0.166665 0.939506
245 2 0.833335 0.166666 0.939506
273 2 0.833333 0.666667 0.939506
230 2 4.21082e-07 0.999999 0.95
244 2 0.5 0.999999 0.95
272 2 0.499998 0.499999 0.95
258 2 1 0.499998 0.95
262 2 0.333332 0.666665 0.960494
234 2 0.333333 0.166667 0.960494
248 2 0.833335 0.166669 0.960494
276 2 0.833332 0.666666 0.960494
233 1 3.56675e-08 1.66315e-06 0.979429
261 1 8.4989e-07 0.500001 0.979429
247 1 0.499998 0.999999 0.979429
275 1 0.500002 0.5 0.979429
263 2 0.333335 0.666668 0.998685
235 2 0.333333 0.166667 0.998685
249 2 0.833332 0.166666 0.998685
277 2 0.833334 0.666667 0.998685
ITEM: TIMESTEP
2120
ITEM: NUMBER OF ATOMS
280
ITEM: BOX BOUNDS xy xz yz pp pp pp
-2.3876342188659767e+00 5.7194694137294775e+00 -2.7023648051365079e+00
2.7256462066260628e-01 4.9532058708534112e+00 0.0000000000000000e+00
-1.1505892135177770e+02 1.9359992135176623e+02 0.0000000000000000e+00
ITEM: ATOMS id type xs ys zs
14 2 0.166667 0.333334 0.00145379
42 2 0.166667 0.833334 0.00145379
56 2 0.666667 0.833334 0.00145379
28 2 0.666667 0.333334 0.00145379
26 1 0.500001 1 0.0205715
54 1 0.5 0.5 0.0205715
12 1 6.85861e-07 0.999999 0.0205715
40 1 3.42316e-07 0.5 0.0205715
13 2 0.166664 0.333331 0.0395058
41 2 0.166665 0.833332 0.0395058
55 2 0.666667 0.833332 0.0395058
27 2 0.666667 0.333334 0.0395058
16 2 0.499999 1 0.05
44 2 0.500001 0.5 0.05
2 2 1 1.42102e-07 0.05
30 2 0.999999 0.500001 0.05
3 2 0.166667 0.333333 0.0604942
31 2 0.166665 0.833332 0.0604942
45 2 0.666665 0.833334 0.0604942
17 2 0.666667 0.333334 0.0604942
15 1 0.499998 0.999999 0.0794285
43 1 0.499999 0.499999 0.0794285
1 1 0.999999 -1.70459e-07 0.0794285
29 1 0.999999 0.499999 0.0794285
4 2 0.166667 0.333333 0.0985462
32 2 0.166667 0.833333 0.0985462
36 2 0.333333 0.666667 0.101454
8 2 0.333333 0.166667 0.101454
46 2 0.666667 0.833333 0.0985462
18 2 0.666667 0.333333 0.0985462
22 2 0.833333 0.166667 0.101454
50 2 0.833333 0.666667 0.101454
5 1 1 3.6315e-07 0.120571
33 1 1 0.5 0.120571
19 1 0.5 2.81389e-08 0.120571
47 1 0.5 0.5 0.120571
35 2 0.333336 0.666668 0.139506
7 2 0.333332 0.166666 0.139506
21 2 0.833334 0.166665 0.139506
49 2 0.833333 0.666667 0.139506
6 2 1.57738e-06 4.71524e-07 0.15
20 2 0.499999 0.999999 0.15
48 2 0.499999 0.5 0.15
34 2 0.999999 0.499998 0.15
38 2 0.333334 0.666667 0.160494
10 2 0.333332 0.166666 0.160494
24 2 0.833335 0.166666 0.160494
52 2 0.833334 0.666668 0.160494
37 1 9.70905e-07 0.5 0.179429
9 1 1 0.999999 0.179429
23 1 0.500001 -1.39222e-07 0.179429
51 1 0.5 0.499999 0.179429
70 2 0.166666 0.333332 0.201454
39 2 0.333333 0.666666 0.198546
98 2 0.166666 0.833333 0.201454
112 2 0.666666 0.833333 0.201454
11 2 0.333333 0.166666 0.198546
25 2 0.833333 0.166666 0.198546
84 2 0.666666 0.333332 0.201454
53 2 0.833333 0.666666 0.198546
110 1 0.500001 0.500001 0.220571
68 1 7.06734e-07 4.27252e-07 0.220571
96 1 5.12e-07 0.5 0.220571
82 1 0.5 8.56599e-07 0.220571
69 2 0.166667 0.333332 0.239506
97 2 0.166667 0.833332 0.239506
111 2 0.666667 0.833332 0.239506
83 2 0.666665 0.333334 0.239506
100 2 0.500001 0.499999 0.25
58 2 0.999999 1.2527e-06 0.25
86 2 1 0.499999 0.25
72 2 0.5 4.54171e-07 0.25
59 2 0.166666 0.333334 0.260494
87 2 0.166665 0.833333 0.260494
101 2 0.666668 0.833334 0.260494
73 2 0.666667 0.333332 0.260494
99 1 0.499999 0.499999 0.279429
85 1 -2.74122e-07 0.5 0.279429
71 1 0.5 1.51907e-07 0.279429
57 1 0.999999 1 0.279429
60 2 0.166666 0.333333 0.298546
88 2 0.166666 0.833333 0.298546
92 2 0.333333 0.666666 0.301454
64 2 0.333333 0.166666 0.301454
102 2 0.666666 0.833333 0.298546
74 2 0.666666 0.333333 0.298546
78 2 0.833333 0.166666 0.301454
106 2 0.833333 0.666666 0.301454
61 1 8.07329e-07 4.1058e-07 0.320571
75 1 0.5 1 0.320571
89 1 1 0.5 0.320571
103 1 0.500001 0.5 0.320571
91 2 0.333332 0.666666 0.339506
63 2 0.333334 0.166669 0.339506
77 2 0.833335 0.166668 0.339506
105 2 0.833333 0.666665 0.339506
62 2 0.999997 0.999998 0.35
90 2 0.999998 0.499998 0.35
76 2 0.5 2.6448e-07 0.35
104 2 0.500002 0.5 0.35
94 2 0.333333 0.666667 0.360494
66 2 0.333334 0.166668 0.360494
80 2 0.833332 0.166665 0.360494
108 2 0.833334 0.666667 0.360494
93 1 -6.71369e-07 0.5 0.379429
79 1 0.499999 1 0.379429
107 1 0.499999 0.5 0.379429
65 1 0.999999 1 0.379429
126 2 0.166667 0.333333 0.401454
95 2 0.333333 0.666666 0.398546
154 2 0.166666 0.833333 0.401454
67 2 0.333333 0.166666 0.398546
168 2 0.666667 0.833333 0.401454
81 2 0.833333 0.166667 0.398546
140 2 0.666667 0.333333 0.401454
109 2 0.833333 0.666666 0.398546
166 1 0.499999 0.500001 0.420571
138 1 0.5 1.43771e-06 0.420571
124 1 0.999999 1.19174e-06 0.420571
152 1 1 0.500002 0.420571
125 2 0.166666 0.333336 0.439506
153 2 0.166667 0.833332 0.439506
167 2 0.666667 0.833335 0.439506
139 2 0.666665 0.333333 0.439506
128 2 0.499999 0.999998 0.45
156 2 0.500002 0.500001 0.45
114 2 0.999999 0.999999 0.45
142 2 1 0.5 0.45
115 2 0.166669 0.333335 0.460494
143 2 0.166666 0.833334 0.460494
157 2 0.666667 0.833335 0.460494
129 2 0.666664 0.333332 0.460494
127 1 0.499999 0.999999 0.479429
113 1 -2.70634e-07 0.999999 0.479429
155 1 0.5 0.499999 0.479429
141 1 0.999999 0.499999 0.479429
116 2 0.166666 0.333332 0.498546
144 2 0.166666 0.833332 0.498546
158 2 0.666666 0.833332 0.498546
130 2 0.666666 0.333332 0.498546
148 2 0.333333 0.666666 0.501454
120 2 0.333333 0.166666 0.501454
134 2 0.833332 0.166665 0.501454
162 2 0.833332 0.666666 0.501454
117 1 7.26266e-07 1.31822e-06 0.520571
145 1 1.08545e-06 0.500002 0.520571
159 1 0.500001 0.500002 0.520571
131 1 0.500001 1.86343e-06 0.520571
147 2 0.333335 0.666668 0.539506
119 2 0.333333 0.166667 0.539506
133 2 0.833332 0.166667 0.539506
161 2 0.833331 0.666665 0.539506
118 2 1.93449e-08 1.72797e-06 0.55
146 2 8.06921e-07 0.499999 0.55
132 2 0.5 0.999999 0.55
160 2 0.5 0.499998 0.55
150 2 0.333332 0.666666 0.560494
122 2 0.333334 0.166668 0.560494
136 2 0.833335 0.166667 0.560494
164 2 0.833333 0.666665 0.560494
149 1 -4.12851e-08 0.5 0.579429
135 1 0.5 1 0.579429
121 1 0.999999 1 0.579429
163 1 0.5 0.5 0.579429
182 2 0.166667 0.333333 0.601454
151 2 0.333333 0.666666 0.598546
210 2 0.166667 0.833333 0.601454
224 2 0.666667 0.833333 0.601454
123 2 0.333333 0.166666 0.598546
137 2 0.833333 0.166667 0.598546
196 2 0.666667 0.333333 0.601454
165 2 0.833333 0.666666 0.598546
180 1 1.23911e-06 1.30395e-07 0.620571
208 1 9.71451e-07 0.5 0.620571
194 1 0.500001 5.19096e-07 0.620571
222 1 0.500001 0.5 0.620571
181 2 0.166668 0.333333 0.639506
209 2 0.166667 0.833333 0.639506
223 2 0.666666 0.833335 0.639506
195 2 0.666668 0.333332 0.639506
212 2 0.499998 0.499999 0.65
170 2 1.58051e-06 4.01478e-07 0.65
198 2 1.47801e-06 0.500001 0.65
184 2 0.499998 0.999999 0.65
171 2 0.166665 0.333332 0.660494
199 2 0.166665 0.833333 0.660494
213 2 0.666666 0.833334 0.660494
185 2 0.666664 0.333333 0.660494
211 1 0.499999 0.500001 0.679429
183 1 0.5 1.21107e-06 0.679429
169 1 0.999999 1.26922e-06 0.679429
197 1 1 0.500001 0.679429
172 2 0.166667 0.333333 0.698546
200 2 0.166667 0.833333 0.698546
204 2 0.333334 0.666667 0.701454
176 2 0.333334 0.166667 0.701454
214 2 0.666667 0.833333 0.698546
186 2 0.666667 0.333333 0.698546
190 2 0.833334 0.166667 0.701454
218 2 0.833334 0.666667 0.701454
173 1 5.46209e-07 6.95564e-07 0.720571
187 1 0.5 1 0.720571
215 1 0.5 0.500001 0.720571
201 1 1 0.5 0.720571
203 2 0.333335 0.666667 0.739506
175 2 0.333334 0.166665 0.739506
189 2 0.833334 0.166665 0.739506
217 2 0.833335 0.666666 0.739506
174 2 4.08593e-07 8.46451e-07 0.75
188 2 0.500001 0.999998 0.75
216 2 0.499998 0.499998 0.75
202 2 0.999999 0.500002 0.75
206 2 0.333332 0.666665 0.760494
178 2 0.333332 0.166665 0.760494
192 2 0.833336 0.166668 0.760494
220 2 0.833334 0.666667 0.760494
191 1 0.499999 0.999998 0.779429
219 1 0.499999 0.499998 0.779429
177 1 0.999999 0.999999 0.779429
205 1 0.999999 0.499999 0.779429
238 2 0.166667 0.333333 0.801454
207 2 0.333333 0.666667 0.798546
266 2 0.166667 0.833333 0.801454
179 2 0.333333 0.166666 0.798546
280 2 0.666667 0.833333 0.801454
193 2 0.833334 0.166666 0.798546
252 2 0.666667 0.333333 0.801454
221 2 0.833334 0.666667 0.798546
250 1 0.499998 0.999999 0.820571
278 1 0.499999 0.499999 0.820571
236 1 0.999999 0.999999 0.820571
264 1 0.999998 0.499999 0.820571
237 2 0.166669 0.333335 0.839506
265 2 0.166666 0.833333 0.839506
279 2 0.666666 0.833332 0.839506
251 2 0.666668 0.333334 0.839506
254 2 1.10246e-06 0.500001 0.85
268 2 0.500002 0.500001 0.85
226 2 0.999999 0.999998 0.85
240 2 0.499999 9.36625e-07 0.85
227 2 0.166669 0.333334 0.860494
255 2 0.166665 0.833335 0.860494
269 2 0.666669 0.833335 0.860494
241 2 0.666666 0.333335 0.860494
239 1 0.5 -4.87413e-07 0.879429
267 1 0.5 0.499999 0.879429
225 1 1 -2.78808e-07 0.879429
253 1 1 0.5 0.879429
228 2 0.166667 0.333333 0.898546
256 2 0.166667 0.833333 0.898546
260 2 0.333333 0.666667 0.901454
232 2 0.333333 0.166667 0.901454
270 2 0.666667 0.833333 0.898546
242 2 0.666667 0.333333 0.898546
246 2 0.833333 0.166667 0.901454
274 2 0.833333 0.666667 0.901454
257 1 2.03436e-07 0.5 0.920571
243 1 0.5 1 0.920571
229 1 1 -7.23023e-08 0.920571
271 1 0.5 0.5 0.920571
259 2 0.333334 0.666667 0.939506
231 2 0.333333 0.166665 0.939506
245 2 0.833335 0.166666 0.939506
273 2 0.833333 0.666667 0.939506
230 2 4.21082e-07 0.999999 0.95
244 2 0.5 0.999999 0.95
272 2 0.499998 0.499999 0.95
258 2 1 0.499998 0.95
262 2 0.333332 0.666665 0.960494
234 2 0.333333 0.166667 0.960494
248 2 0.833335 0.166669 0.960494
276 2 0.833332 0.666666 0.960494
233 1 1.06664e-07 7.37327e-07 0.979429
261 1 3.25906e-07 0.5 0.979429
247 1 0.5 1 0.979429
275 1 0.500001 0.5 0.979429
263 2 0.333333 0.666667 0.998546
235 2 0.333333 0.166667 0.998546
249 2 0.833333 0.166667 0.998546
277 2 0.833333 0.666667 0.998546
ITEM: TIMESTEP
2130
ITEM: NUMBER OF ATOMS
280
ITEM: BOX BOUNDS xy xz yz pp pp pp
-2.3876342188659767e+00 5.7194694137294775e+00 -2.7023648051365079e+00
2.7256462066260628e-01 4.9532058708534112e+00 0.0000000000000000e+00
-1.1505892135177770e+02 1.9359992135176623e+02 0.0000000000000000e+00
ITEM: ATOMS id type xs ys zs
14 2 0.166667 0.333334 0.00145379
42 2 0.166667 0.833334 0.00145379
56 2 0.666667 0.833334 0.00145379
28 2 0.666667 0.333334 0.00145379
26 1 0.500001 1 0.0205715
54 1 0.500001 0.5 0.0205715
12 1 5.09745e-07 1 0.0205715
40 1 5.09671e-07 0.5 0.0205715
13 2 0.166664 0.333331 0.0395058
41 2 0.166665 0.833332 0.0395058
55 2 0.666667 0.833332 0.0395058
27 2 0.666667 0.333334 0.0395058
16 2 0.499999 1 0.05
44 2 0.500001 0.5 0.05
2 2 1 1.42102e-07 0.05
30 2 0.999999 0.500001 0.05
3 2 0.166667 0.333333 0.0604942
31 2 0.166665 0.833332 0.0604942
45 2 0.666665 0.833334 0.0604942
17 2 0.666667 0.333334 0.0604942
15 1 0.499999 0.999999 0.0794285
43 1 0.499999 0.499999 0.0794285
1 1 0.999999 -5.43555e-07 0.0794285
29 1 0.999999 0.499999 0.0794285
4 2 0.166667 0.333333 0.0985462
32 2 0.166667 0.833333 0.0985462
36 2 0.333333 0.666667 0.101454
8 2 0.333333 0.166667 0.101454
46 2 0.666667 0.833333 0.0985462
18 2 0.666667 0.333333 0.0985462
22 2 0.833333 0.166667 0.101454
50 2 0.833333 0.666667 0.101454
5 1 1 1.67744e-07 0.120571
33 1 1 0.5 0.120571
19 1 0.5 1.67712e-07 0.120571
47 1 0.5 0.5 0.120571
35 2 0.333336 0.666668 0.139506
7 2 0.333332 0.166666 0.139506
21 2 0.833334 0.166665 0.139506
49 2 0.833333 0.666667 0.139506
6 2 1.57738e-06 4.71524e-07 0.15
20 2 0.499999 0.999999 0.15
48 2 0.499999 0.5 0.15
34 2 0.999999 0.499998 0.15
38 2 0.333334 0.666667 0.160494
10 2 0.333332 0.166666 0.160494
24 2 0.833335 0.166666 0.160494
52 2 0.833334 0.666668 0.160494
37 1 4.27356e-07 0.499999 0.179429
9 1 1 0.999999 0.179429
23 1 0.5 -5.59913e-07 0.179429
51 1 0.5 0.499999 0.179429
70 2 0.166666 0.333332 0.201454
39 2 0.333333 0.666666 0.198546
98 2 0.166666 0.833332 0.201454
112 2 0.666666 0.833332 0.201454
11 2 0.333333 0.166666 0.198546
25 2 0.833333 0.166666 0.198546
84 2 0.666666 0.333332 0.201454
53 2 0.833333 0.666666 0.198546
110 1 0.500001 0.500001 0.220571
68 1 5.70204e-07 6.03828e-07 0.220571
96 1 5.70161e-07 0.500001 0.220571
82 1 0.500001 6.03866e-07 0.220571
69 2 0.166667 0.333332 0.239506
97 2 0.166667 0.833332 0.239506
111 2 0.666667 0.833332 0.239506