LAMMPS (7 Feb 2024 - Development - patch_7Feb2024_update1-197-g554f53decb)
  using 6 OpenMP thread(s) per MPI task
package omp 0
using multi-threaded neighbor list subroutines
clear
  using 6 OpenMP thread(s) per MPI task
package omp 0
using multi-threaded neighbor list subroutines
units metal
dimension 3
boundary p p p

# Atom definition
atom_style atomic
atom_modify map array

read_data W2B5-P6_3-mmc.lmpstr
Reading data file ...
  triclinic box = (0 0 0) to (3.0171 2.6128852 15.7082) with tilt (-1.50855 0 0)
WARNING: Triclinic box skew is large. LAMMPS will run inefficiently. (src/domain.cpp:219)
  1 by 1 by 1 MPI processor grid
  reading atoms ...
  14 atoms
  read_data CPU = 0.001 seconds
replicate 2 2 5
Replication is creating a 2x2x5 = 20 times larger system...
  triclinic box = (0 0 0) to (6.0342 5.2257705 78.541) with tilt (-3.0171 0 0)
WARNING: Triclinic box skew is large. LAMMPS will run inefficiently. (src/domain.cpp:219)
  1 by 1 by 1 MPI processor grid
  280 atoms
  replicate CPU = 0.001 seconds

# Define mass and interactions (from lit.)
pair_style tersoff
pair_coeff * * WB.tersoff W B

# Neighbors and thermo settings
neighbor 2.0 bin
neigh_modify delay 1 check yes

compute eng all pe/atom
compute eatoms all reduce sum c_eng

reset_timestep 0
# The vmax keyword can be used to limit the fractional change in the
# volume of the simulation box that can occur in one iteration of the
# minimizer. If the pressure is not settling down during the
# minimization this can be because the volume is fluctuating too much.
# The specified fraction must be greater than 0.0 and should be << 1.0.
fix box_relax all box/relax aniso 0.0 vmax 0.001

# Set the thermo style to collect data every 10 time steps
thermo 10
thermo_style custom step pe vol press cella cellc c_eatoms

# Dump command to visualize in OVITO
dump 1 all atom 10 dump.W2B5_min.lammpstrj

# Minimisation algorithms:
#   cg = Conjugate Gradient
#   sd = Steepest Descent
# Typically, steepest descent will not converge as quickly as CG, but may
# be more robust in some situations.

# Run energy minimisation algorithms. Use multiple to guarantee a stable
# phase. Minimize args:
#   etol(stop tolerance: energy)
#   ftol(stop tolerance: force)
#   maxiter(max iters of minimiser)
#   maxeval(max # of F/E calcs)

min_style cg
minimize 1.0e-4 1.0e-6 1000 10000
Switching to 'neigh_modify every 1 delay 0 check yes' setting during minimization
Last active /omp style is pair_style tersoff/omp
Neighbor list info ...
  update: every = 1 steps, delay = 0 steps, check = yes
  max neighbors/atom: 2000, page size: 100000
  master list distance cutoff = 7.240189
  ghost atom cutoff = 7.240189
  binsize = 3.6200945, bins = 3 2 22
  1 neighbor lists, perpetual/occasional/extra = 1 0 0
  (1) pair tersoff/omp, perpetual
      attributes: full, newton on, omp
      pair build: full/bin/atomonly/omp
      stencil: full/bin/3d
      bin: standard
WARNING: Energy due to 3 extra global DOFs will be included in minimizer energies
 (src/min.cpp:219)
Per MPI rank memory allocation (min/avg/max) = 9.56 | 9.56 | 9.56 Mbytes
   Step         PotEng         Volume         Press          Cella          Cellc         c_eatoms   
         0   4755.8262      2476.6604      6874925.9      6.0342         78.541         4755.8262    
        10   4500.9681      2536.1599      6412047.3      6.0759487      79.32641       4500.9681    
        20   4259.2399      2596.7036      5980387.6      6.1178324      80.11182       4259.2399    
        30   4029.9818      2658.3039      5577892.2      6.1598505      80.89723       4029.9818    
        40   3812.5658      2720.9734      5202567.9      6.2020028      81.68264       3812.5658    
        50   3606.306       2784.7214      4865708.5      6.2442848      82.46805       3606.306     
        60   3409.6854      2849.5041      4572392.3      6.2866341      83.25346       3409.6854    
        70   3222.0721      2915.3079      4295293.3      6.3290249      84.03887       3222.0721    
        80   3043.1127      2982.1365      4040502.5      6.3714511      84.82428       3043.1127    
        90   2871.621       3049.8626      3833842        6.4137697      85.60969       2871.621     
       100   2707.0581      3118.2346      3637190.5      6.4557176      86.3951        2707.0581    
       110   2549.2871      3187.2535      3447525.1      6.4973056      87.18051       2549.2871    
       120   2397.6761      3256.9274      3290740        6.5385508      87.96592       2397.6761    
       130   2251.2438      3327.2629      3141805.9      6.5794686      88.75133       2251.2438    
       140   2110.0107      3398.2738      2994836.8      6.6200799      89.53674       2110.0107    
       150   1974.003       3469.9718      2850343.4      6.6604033      90.32215       1974.003     
       160   1843.2269      3542.366       2708769.4      6.7004534      91.10756       1843.2269    
       170   1717.4608      3615.4942      2611217.6      6.7402713      91.89297       1717.4608    
       180   1587.8049      3691.5299      2668432.3      6.7818574      92.67838       1587.8049    
       190   1451.0912      3771.5254      2675991.2      6.8260819      93.46379       1451.0912    
       200   1310.5949      3854.9649      2622243.3      6.8723622      94.2492        1310.5949    
       210   1170.7121      3941.1283      2503802.4      6.9199674      95.03461       1170.7121    
       220   1036.2402      4029.1426      2327371        6.9680755      95.82002       1036.2402    
       230   911.46762      4118.0555      2109028.7      7.015845       96.60543       911.46762    
       240   799.36502      4206.9272      1870481.7      7.0624942      97.39084       799.36502    
       250   701.17433      4294.947       1633816.8      7.1073933      98.17625       701.17433    
       260   616.49246      4381.5497      1416793.1      7.1501484      98.96166       616.49246    
       270   543.73837      4466.5036      1230464.7      7.1906548      99.74707       543.73837    
       280   480.73743      4549.9544      1078924.3      7.2291127      100.53248      480.73743    
       290   425.23749      4632.3816      960848.94      7.2659728      101.31789      425.23749    
       300   375.22715      4714.4906      871582.76      7.3018376      102.1033       375.22715    
       310   329.08486      4797.0582      804777.92      7.3373343      102.88871      329.08486    
       320   285.58832      4880.5455      757084.82      7.3728208      103.67412      285.58832    
       330   244.57528      4964.285       703377.62      7.4077956      104.45953      244.57528    
       340   206.36265      5048.2784      648307.97      7.442275       105.24494      206.36265    
       350   170.9736       5132.8679      592696.79      7.476522       106.03035      170.9736     
       360   138.39902      5218.3496      540122.43      7.510755       106.81576      138.39902    
       370   107.68435      5306.7875      501282.53      7.5464386      107.60117      107.68435    
       380   78.530205      5399.3874      456963.5       7.5843644      108.38658      78.530205    
       390   51.544151      5495.1926      407688.22      7.6237836      109.17199      51.544151    
       400   27.458997      5592.091       355369.6       7.6631903      109.9574       27.458997    
       410   6.8625936      5686.7811      303749.71      7.7003458      110.74281      6.8625936    
       420  -10.177458      5775.4852      257326.02      7.7327969      111.52822     -10.177458    
       430  -24.22684       5855.4681      217822.11      7.7588854      112.31363     -24.22684     
       440  -35.965388      5926.592       178931.15      7.7787144      113.09904     -35.965388    
       450  -45.462125      5991.1018      139926.53      7.7939196      113.88445     -45.462125    
       460  -53.540935      6048.2401      116047.67      7.8041333      114.66986     -53.540935    
       470  -60.853312      6097.9603      97771.44       7.8094464      115.45527     -60.853312    
       480  -67.703369      6141.3288      84099.591      7.8106461      116.24068     -67.703369    
       490  -74.274258      6179.5055      74056.532      7.8085501      117.02609     -74.274258    
       500  -80.664503      6213.6067      66778.399      7.8039226      117.8115      -80.664503    
       510  -86.919452      6244.6206      61571.781      7.7974266      118.59691     -86.919452    
       520  -93.091441      6273.4398      58720.296      7.7896482      119.38232     -93.091441    
       530  -99.210308      6300.7853      56757.629      7.7810541      120.16773     -99.210308    
       540  -105.27065      6327.1535      55561.284      7.771962       120.95314     -105.27065    
       550  -111.27338      6352.9199      54902.548      7.7626092      121.73855     -111.27338    
       560  -117.22071      6378.3498      54613.599      7.7531608      122.52396     -117.22071    
       570  -123.11627      6403.6209      54566.907      7.7437253      123.30937     -123.11627    
       580  -128.96438      6428.84        54656.705      7.7343668      124.09478     -128.96438    
       590  -134.76891      6454.0538      54782.089      7.7251117      124.88019     -134.76891    
       600  -140.53179      6479.2518      54831.378      7.715952       125.6656      -140.53179    
       610  -146.25106      6504.3629      54667.928      7.7068439      126.45101     -146.25106    
       620  -151.9188       6529.2449      54118.876      7.6977026      127.23642     -151.9188     
       630  -157.51783      6553.6633      52941.94       7.6883909      128.02183     -157.51783    
       640  -163.1148       6578.5008      56817.311      7.6794263      128.80724     -163.1148     
       650  -168.82843      6605.0468      60589.425      7.6715523      129.59265     -168.82843    
       660  -174.68374      6632.842       63998.398      7.664487       130.37806     -174.68374    
       670  -180.69357      6661.4846      66953.164      7.6579869      131.16347     -180.69357    
       680  -186.85673      6690.5786      69230.02       7.651817       131.94888     -186.85673    
       690  -193.1545       6719.6754      70470.779      7.6457166      132.73429     -193.1545     
       700  -199.54689      6748.2149      70197.19       7.6393678      133.5197      -199.54689    
       710  -205.97076      6775.4607      67862.318      7.6323594      134.30511     -205.97076    
       720  -212.34315      6800.4209      62955.416      7.6241449      135.09052     -212.34315    
       730  -218.5738       6821.7428      55162.237      7.6139864      135.87593     -218.5738     
       740  -224.76917      6840.9839      58762.482      7.6027755      136.66134     -224.76917    
       750  -231.0938       6861.2816      61171.166      7.5922609      137.44675     -231.0938     
       760  -237.52303      6881.5617      61685.331      7.5818417      138.23216     -237.52303    
       770  -244.01367      6900.6942      60034.573      7.5708965      139.01757     -244.01367    
       780  -250.51448      6917.4134      56006.86       7.5587403      139.80298     -250.51448    
       790  -256.98214      6930.2186      49554.568      7.5445702      140.58839     -256.98214    
       800  -263.40399      6937.2817      40899.84       7.5274167      141.3738      -263.40399    
       810  -269.82495      6936.3963      30612.922      7.5061146      142.15921     -269.82495    
       820  -276.36929      6925.0599      19648.954      7.4793451      142.94462     -276.36929    
       830  -283.20719      6901.1781      9573.0924      7.4460086      143.73003     -283.20719    
       840  -290.46997      6863.9965      1379.4263      7.4057158      144.51544     -290.46997    
       850  -298.20137      6814.2847     -4523.9891      7.3588789      145.30085     -298.20137    
       860  -306.33494      6754.1705     -8282.6196      7.3066259      146.08626     -306.33494    
       870  -314.7311       6686.3265     -10384.405      7.2503718      146.87167     -314.7311     
       880  -323.23495      6613.1115     -11375.163      7.1913634      147.65708     -323.23495    
       890  -331.63276      6536.9031     -11683.403      7.1310411      148.43522     -331.63276    
       900  -339.78512      6459.3068     -13364.307      7.0706991      149.18733     -339.78512    
       910  -347.83195      6380.1577     -14296.631      7.0103571      149.90696     -347.83195    
       920  -355.80619      6300.1405     -14653.211      6.9500151      150.60845     -355.80619    
       930  -363.70288      6219.5603     -14743.007      6.8896731      151.29793     -363.70288    
       940  -371.50165      6138.5557     -14687.628      6.8293311      151.97787     -371.50165    
       950  -379.17441      6057.2012     -14530.642      6.7689891      152.64929     -379.17441    
       960  -386.68813      5975.5466     -14283.579      6.7086471      153.3127      -386.68813    
       970  -394.00575      5893.6324     -13945.047      6.6483051      153.96836     -394.00575    
       980  -401.0864       5811.4952     -13508.425      6.5879631      154.6165      -401.0864     
       990  -407.88524      5729.1699     -12964.863      6.5276211      155.2573      -407.88524    
      1000  -414.35334      5646.6903     -12304.414      6.4672791      155.89095     -414.35334    
Loop time of 1.4312 on 6 procs for 1000 steps with 280 atoms

599.2% CPU use with 1 MPI tasks x 6 OpenMP threads

Minimization stats:
  Stopping criterion = max iterations
  Energy initial, next-to-last, final = 
      4755.82617423578  -413.722897052076   -414.35334311964
  Force two-norm initial, final = 18715.652 384.87832
  Force max component initial, final = 13386.221 235.69753
  Final line search alpha, max atom move = 4.2187577e-06 0.00099435078
  Iterations, force evaluations = 1000 1000

MPI task timing breakdown:
Section |  min time  |  avg time  |  max time  |%varavg| %total
---------------------------------------------------------------
Pair    | 1.2997     | 1.2997     | 1.2997     |   0.0 | 90.81
Neigh   | 0.015474   | 0.015474   | 0.015474   |   0.0 |  1.08
Comm    | 0.022296   | 0.022296   | 0.022296   |   0.0 |  1.56
Output  | 0.038479   | 0.038479   | 0.038479   |   0.0 |  2.69
Modify  | 0.014109   | 0.014109   | 0.014109   |   0.0 |  0.99
Other   |            | 0.04114    |            |       |  2.87

Nlocal:            280 ave         280 max         280 min
Histogram: 1 0 0 0 0 0 0 0 0 0
Nghost:           3444 ave        3444 max        3444 min
Histogram: 1 0 0 0 0 0 0 0 0 0
Neighs:              0 ave           0 max           0 min
Histogram: 1 0 0 0 0 0 0 0 0 0
FullNghs:        19920 ave       19920 max       19920 min
Histogram: 1 0 0 0 0 0 0 0 0 0

Total # of neighbors = 19920
Ave neighs/atom = 71.142857
Neighbor list builds = 75
Dangerous builds = 0
min_style sd
minimize 1.0e-4 1.0e-6 1000 10000
Switching to 'neigh_modify every 1 delay 0 check yes' setting during minimization
Last active /omp style is pair_style tersoff/omp
WARNING: Energy due to 3 extra global DOFs will be included in minimizer energies
 (src/min.cpp:219)
Per MPI rank memory allocation (min/avg/max) = 10.7 | 10.7 | 10.7 Mbytes
   Step         PotEng         Volume         Press          Cella          Cellc         c_eatoms   
      1000  -414.35334      5646.6903     -12304.414      6.4672791      155.89095     -414.35334    
      1010  -421.03568      5572.4403     -42512.789      6.4052071      156.83723     -421.03568    
      1020  -426.93816      5482.4581     -39057.527      6.3405343      157.46848     -426.93816    
      1030  -432.2546       5392.3979     -34837.226      6.2758615      158.09028     -432.2546     
      1040  -436.90481      5302.3354     -29893.726      6.2111887      158.70391     -436.90481    
      1050  -440.80571      5212.3076     -24150.323      6.1465159      159.30956     -440.80571    
      1060  -443.88142      5122.3535     -17531.437      6.0818431      159.90751     -443.88142    
      1070  -446.1406       5037.9673     -6157.1989      6.0171703      160.67204     -446.1406     
      1080  -447.74357      5013.476       2700.3467      5.9744957      162.18314     -447.74357    
      1090  -449.01752      5042.6684      4568.1889      5.963272       163.74205     -449.01752    
      1100  -450.30034      5081.3639      5077.8402      5.9578135      165.30096     -450.30034    
      1110  -451.6089       5121.6173      5337.1895      5.9533579      166.85987     -451.6089     
      1120  -452.94457      5161.9742      5548.7456      5.9490414      168.41878     -452.94457    
      1130  -454.30768      5202.1478      5751.7353      5.9446964      169.97768     -454.30768    
      1140  -455.69837      5242.0763      5954.2133      5.9402886      171.53659     -455.69837    
      1150  -457.11678      5281.7444      6157.9259      5.9358108      173.0955      -457.11678    
      1160  -458.56302      5321.1466      6363.269       5.9312615      174.65441     -458.56302    
      1170  -460.03719      5360.28        6570.3336      5.9266407      176.21332     -460.03719    
      1180  -461.53938      5399.142       6779.1374      5.9219487      177.77223     -461.53938    
      1190  -463.06969      5437.7306      6989.6786      5.9171859      179.33114     -463.06969    
      1200  -464.62821      5476.0437      7201.9493      5.9123527      180.89005     -464.62821    
      1210  -466.215        5514.0792      7415.9387      5.9074497      182.44896     -466.215      
      1220  -467.83014      5551.8354      7631.6335      5.9024773      184.00787     -467.83014    
      1230  -469.47369      5589.3106      7849.0183      5.8974361      185.56678     -469.47369    
      1240  -471.1457       5626.5029      8068.0757      5.8923267      187.12569     -471.1457     
      1250  -472.84621      5663.4111      8288.786       5.8871496      188.6846      -472.84621    
      1260  -474.57526      5700.0335      8511.1269      5.8819055      190.24351     -474.57526    
      1270  -476.33287      5736.3689      8735.074       5.8765951      191.80242     -476.33287    
      1280  -478.11907      5772.4161      8960.5998      5.871219       193.36133     -478.11907    
      1290  -479.93384      5808.1739      9187.6743      5.8657781      194.92024     -479.93384    
      1300  -481.77719      5843.6415      9416.2646      5.860273       196.47915     -481.77719    
      1310  -483.6491       5878.8181      9646.3345      5.8547046      198.03806     -483.6491     
      1320  -485.54954      5913.7028      9877.8449      5.8490737      199.59697     -485.54954    
      1330  -487.47846      5948.2951      10110.753      5.8433812      201.15588     -487.47846    
      1340  -489.43582      5982.5947      10345.013      5.8376279      202.71479     -489.43582    
      1350  -491.42154      6016.6012      10580.575      5.8318149      204.27369     -491.42154    
      1360  -493.43555      6050.3144      10817.385      5.8259431      205.8326      -493.43555    
      1370  -495.47774      6083.7344      11055.386      5.8200135      207.39151     -495.47774    
      1380  -497.54801      6116.8614      11294.516      5.8140272      208.95042     -497.54801    
      1390  -499.64623      6149.6955      11534.709      5.8079853      210.50933     -499.64623    
      1400  -501.77226      6182.2374      11775.894      5.8018888      212.06824     -501.77226    
      1410  -503.92594      6214.4876      12017.997      5.7957391      213.62715     -503.92594    
      1420  -506.10709      6246.447       12260.937      5.7895374      215.18606     -506.10709    
      1430  -508.31553      6278.1165      12504.629      5.7832848      216.74497     -508.31553    
      1440  -510.55104      6309.4972      12748.983      5.7769827      218.30388     -510.55104    
      1450  -512.81339      6340.5906      12993.904      5.7706325      219.86279     -512.81339    
      1460  -515.10233      6371.3981      13239.291      5.7642355      221.4217      -515.10233    
      1470  -517.41761      6401.9214      13485.036      5.7577932      222.98061     -517.41761    
      1480  -519.75891      6432.1625      13731.028      5.7513071      224.53952     -519.75891    
      1490  -522.12595      6462.1234      13977.147      5.7447788      226.09843     -522.12595    
      1500  -524.51838      6491.8064      14223.268      5.7382097      227.65734     -524.51838    
      1510  -526.93585      6521.2141      14469.261      5.7316017      229.21625     -526.93585    
      1520  -529.37799      6550.3491      14714.988      5.7249562      230.77516     -529.37799    
      1530  -531.84439      6579.2143      14960.303      5.7182752      232.33407     -531.84439    
      1540  -534.33464      6607.813       15205.056      5.7115604      233.89298     -534.33464    
      1550  -536.84829      6636.1484      15449.089      5.7048136      235.45189     -536.84829    
      1560  -539.38487      6664.2242      15692.235      5.6980367      237.01079     -539.38487    
      1570  -541.94387      6692.0441      15934.322      5.6912317      238.5697      -541.94387    
      1580  -544.52478      6719.6123      16175.171      5.6844005      240.12861     -544.52478    
      1590  -547.12705      6746.9329      16414.593      5.6775452      241.68752     -547.12705    
      1600  -549.7501       6774.0105      16652.393      5.670668       243.24643     -549.7501     
      1610  -552.39334      6800.8499      16888.37       5.663771       244.80534     -552.39334    
      1620  -555.05613      6827.456       17122.311      5.6568564      246.36425     -555.05613    
      1630  -557.73781      6853.834       17354.001      5.6499264      247.92316     -557.73781    
      1640  -560.43772      6879.9895      17583.211      5.6429834      249.48207     -560.43772    
      1650  -563.15512      6905.9282      17809.71       5.6360297      251.04098     -563.15512    
      1660  -565.88929      6931.656       18033.256      5.6290679      252.59989     -565.88929    
      1670  -568.63945      6957.1792      18253.601      5.6221003      254.1588      -568.63945    
      1680  -571.40481      6982.5041      18470.487      5.6151294      255.71771     -571.40481    
      1690  -574.18454      7007.6376      18683.653      5.6081579      257.27662     -574.18454    
      1700  -576.9778       7032.5865      18892.826      5.6011884      258.83553     -576.9778     
      1710  -579.7837       7057.3581      19097.73       5.5942235      260.39444     -579.7837     
      1720  -582.60133      7081.9598      19298.079      5.587266       261.95335     -582.60133    
      1730  -585.42975      7106.3993      19493.583      5.5803185      263.51226     -585.42975    
      1740  -588.26801      7130.6844      19683.946      5.573384       265.07117     -588.26801    
      1750  -591.11511      7154.8234      19868.863      5.5664652      266.63008     -591.11511    
      1760  -593.97003      7178.8245      20048.026      5.559565       268.18899     -593.97003    
      1770  -596.83174      7202.6964      20221.123      5.5526863      269.7479      -596.83174    
      1780  -599.69915      7226.4478      20387.836      5.545832       271.3068      -599.69915    
      1790  -602.57119      7250.0878      20547.843      5.5390052      272.86571     -602.57119    
      1800  -605.44673      7273.6255      20700.82       5.5322087      274.42462     -605.44673    
      1810  -608.32463      7297.0703      20846.439      5.5254456      275.98353     -608.32463    
      1820  -611.20373      7320.4319      20984.372      5.518719       277.54244     -611.20373    
      1830  -614.08284      7343.7198      21114.288      5.5120318      279.10135     -614.08284    
      1840  -616.96078      7366.9441      21235.856      5.5053871      280.66026     -616.96078    
      1850  -619.8363       7390.1147      21348.747      5.498788       282.21917     -619.8363     
      1860  -622.70818      7413.2417      21452.633      5.4922374      283.77808     -622.70818    
      1870  -625.57516      7436.3356      21547.187      5.4857385      285.33699     -625.57516    
      1880  -628.43597      7459.4066      21632.087      5.4792942      286.8959      -628.43597    
      1890  -631.28933      7482.4652      21707.015      5.4729076      288.45481     -631.28933    
      1900  -634.13394      7505.522       21771.66       5.4665816      290.01372     -634.13394    
      1910  -636.96851      7528.5875      21825.715      5.4603192      291.57263     -636.96851    
      1920  -639.79171      7551.6725      21868.884      5.4541234      293.13154     -639.79171    
      1930  -642.60224      7574.7875      21900.877      5.447997       294.69045     -642.60224    
      1940  -645.39877      7597.9431      21921.416      5.4419428      296.24936     -645.39877    
      1950  -648.17997      7621.1501      21930.235      5.4359637      297.80827     -648.17997    
      1960  -650.94452      7644.419       21927.079      5.4300624      299.36718     -650.94452    
      1970  -653.69109      7667.7604      21911.708      5.4242416      300.92609     -653.69109    
      1980  -656.41837      7691.1847      21883.897      5.4185037      302.485       -656.41837    
      1990  -659.12503      7714.7024      21843.436      5.4128515      304.04391     -659.12503    
      2000  -661.80978      7738.3236      21790.133      5.4072873      305.60281     -661.80978    
Loop time of 0.678557 on 6 procs for 1000 steps with 280 atoms

600.7% CPU use with 1 MPI tasks x 6 OpenMP threads

Minimization stats:
  Stopping criterion = max iterations
  Energy initial, next-to-last, final = 
      -414.35334311964  -661.542326662804   -661.80977728918
  Force two-norm initial, final = 519.28011 215.48874
  Force max component initial, final = 375.12645 173.69176
  Final line search alpha, max atom move = 5.7535707e-06 0.00099934783
  Iterations, force evaluations = 1000 1000

MPI task timing breakdown:
Section |  min time  |  avg time  |  max time  |%varavg| %total
---------------------------------------------------------------
Pair    | 0.52511    | 0.52511    | 0.52511    |   0.0 | 77.39
Neigh   | 0.0271     | 0.0271     | 0.0271     |   0.0 |  3.99
Comm    | 0.03217    | 0.03217    | 0.03217    |   0.0 |  4.74
Output  | 0.035336   | 0.035336   | 0.035336   |   0.0 |  5.21
Modify  | 0.016669   | 0.016669   | 0.016669   |   0.0 |  2.46
Other   |            | 0.04217    |            |       |  6.21

Nlocal:            280 ave         280 max         280 min
Histogram: 1 0 0 0 0 0 0 0 0 0
Nghost:           5000 ave        5000 max        5000 min
Histogram: 1 0 0 0 0 0 0 0 0 0
Neighs:              0 ave           0 max           0 min
Histogram: 1 0 0 0 0 0 0 0 0 0
FullNghs:        17840 ave       17840 max       17840 min
Histogram: 1 0 0 0 0 0 0 0 0 0

Total # of neighbors = 17840
Ave neighs/atom = 63.714286
Neighbor list builds = 137
Dangerous builds = 0

# min_style cg
# minimize 1.0e-4 1.0e-6 1000 10000
# min_style cg
# minimize 1.0e-4 1.0e-6 1000 10000

unfix box_relax

# Divide sim box by periodic multiple
variable        a equal cella/2
variable        b equal cellb/2
variable        c equal cellc/5

variable        natoms equal "count(all)"
variable        teng equal "c_eatoms"
variable        ecoh equal "v_teng/v_natoms"

print "LA: ${a}"
LA: 2.70364365290375
print "LB: ${b}"
LB: 2.70364373664659
print "LC: ${c}"
LC: 61.120562911593
print "COHENERGY: ${ecoh}"
COHENERGY: -2.36360634746135

# ELASTIC CONSTANT

include in.init.mod
# NOTE: This script can be modified for different atomic structures,
# units, etc. See in.elastic for more info.

# Define the finite deformation size. Try several values of this
# variable to verify that results do not depend on it.
variable up equal 1.0e-6

# Define the amount of random jiggle for atoms
# This prevents atoms from staying on saddle points
variable atomjiggle equal 1.0e-5

# Uncomment one of these blocks, depending on what units
# you are using in LAMMPS and for output

# metal units, elastic constants in eV/A^3
#units		metal
#variable cfac equal 6.2414e-7
#variable cunits string eV/A^3

# metal units, elastic constants in GPa
# units	metal already defined earlier
variable cfac equal 1.0e-4
variable cunits string GPa

# real units, elastic constants in GPa
#units		real
#variable cfac equal 1.01325e-4
#variable cunits string GPa

# Define minimization parameters
variable etol equal 0.0
variable ftol equal 1.0e-10
variable maxiter equal 100
variable maxeval equal 1000
variable dmax equal 1.0e-2

# boundary p p p already defined earlier

# read_data WB2_P6.lmp defined earlier
include in.potential.mod
# NOTE: This script can be modified for different pair styles
# See in.elastic for more info.

# Choose potential
pair_style tersoff
pair_coeff * * WB.tersoff W B

# Setup neighbor style
neighbor 1.0 nsq
neigh_modify once no every 1 delay 0 check yes

# Setup minimization style
min_style	cg
min_modify dmax ${dmax} line quadratic
min_modify dmax 0.01 line quadratic

# Setup output
thermo 1
thermo_style custom step temp pe press pxx pyy pzz pxy pxz pyz lx ly lz vol
thermo_modify norm no

dump 2 all atom 10 dump.W2B5_elastic.lammpstrj

# Compute initial state
fix 3 all box/relax aniso 1.0
minimize ${etol} ${ftol} ${maxiter} ${maxeval}
minimize 0 ${ftol} ${maxiter} ${maxeval}
minimize 0 1e-10 ${maxiter} ${maxeval}
minimize 0 1e-10 100 ${maxeval}
minimize 0 1e-10 100 1000
Last active /omp style is pair_style tersoff/omp
Neighbor list info ...
  update: every = 1 steps, delay = 0 steps, check = yes
  max neighbors/atom: 2000, page size: 100000
  master list distance cutoff = 6.240189
  ghost atom cutoff = 6.240189
  1 neighbor lists, perpetual/occasional/extra = 1 0 0
  (1) pair tersoff/omp, perpetual
      attributes: full, newton on, omp
      pair build: full/nsq/omp
      stencil: none
      bin: none
WARNING: Energy due to 3 extra global DOFs will be included in minimizer energies
 (src/min.cpp:219)
Per MPI rank memory allocation (min/avg/max) = 10.65 | 10.65 | 10.65 Mbytes
   Step          Temp          PotEng         Press           Pxx            Pyy            Pzz            Pxy            Pxz            Pyz             Lx             Ly             Lz           Volume    
      2000   0             -661.80978      21790.133     -2563.9757     -2564.005       70498.379     -0.0036934092   6.2052638e-09 -4.6454888e-09  5.4072873      4.6828483      305.60281      7738.3236    
      2001   0             -661.84856      21775.609     -2579.6289     -2579.6582      70486.114     -0.0037184712  -5.2661889e-10  1.4857125e-10  5.4072676      4.6828313      305.63337      7739.0411    
      2002   0             -661.88734      21761.116     -2595.2396     -2595.2689      70473.857     -0.0037434215   1.4449789e-08 -8.4835885e-09  5.4072478      4.6828141      305.66394      7739.7582    
      2003   0             -661.92611      21746.654     -2610.8079     -2610.8372      70461.608     -0.0037685542  -3.2988474e-09 -1.579564e-09   5.4072279      4.6827969      305.6945       7740.475     
      2004   0             -661.96488      21732.223     -2626.3337     -2626.3631      70449.366     -0.0037935373  -1.0804453e-08  1.047982e-08   5.4072079      4.6827795      305.72506      7741.1914    
      2005   0             -662.00364      21717.822     -2641.8173     -2641.8467      70437.131     -0.0038185251  -4.4113736e-10  8.7437101e-09  5.4071877      4.682762       305.75562      7741.9075    
      2006   0             -662.0424       21703.452     -2657.2588     -2657.2882      70424.904     -0.0038435234  -7.9889943e-09 -9.5828233e-10  5.4071674      4.6827445      305.78618      7742.6231    
      2007   0             -662.08115      21689.113     -2672.6581     -2672.6875      70412.685     -0.0038685337   1.3231675e-09  5.6929282e-09  5.407147       4.6827268      305.81674      7743.3384    
      2008   0             -662.11989      21674.804     -2688.0154     -2688.0448      70400.473     -0.0038935312   1.5503151e-08 -8.941214e-09   5.4071264      4.682709       305.8473       7744.0534    
      2009   0             -662.15863      21660.526     -2703.3307     -2703.3601      70388.268     -0.0039185375  -4.6890281e-10  1.7577976e-08  5.4071057      4.6826911      305.87786      7744.7679    
      2010   0             -662.19736      21646.277     -2718.6042     -2718.6336      70376.07      -0.0039433862  -7.9911896e-09 -1.2625404e-08  5.4070849      4.6826731      305.90842      7745.4821    
      2011   0             -662.23608      21632.06      -2733.8359     -2733.8654      70363.88      -0.0039684589  -1.5492985e-08  2.2999925e-09  5.407064       4.682655       305.93898      7746.196     
      2012   0             -662.2748       21617.872     -2749.026      -2749.0554      70351.697     -0.0039933256  -6.5172699e-10 -2.6818529e-11  5.407043       4.6826367      305.96954      7746.9095    
      2013   0             -662.31352      21603.714     -2764.1744     -2764.2039      70339.522     -0.0040183119   6.9302985e-09  4.523098e-09   5.4070218      4.6826184      306.0001       7747.6226    
      2014   0             -662.35222      21589.587     -2779.2813     -2779.3109      70327.353     -0.0040432521  -6.1671265e-09  3.4703402e-09  5.4070005      4.6826         306.03066      7748.3353    
      2015   0             -662.39093      21575.49      -2794.3469     -2794.3764      70315.192     -0.0040682248  -5.751538e-10   8.8105776e-09  5.4069791      4.6825814      306.06122      7749.0477    
      2016   0             -662.42962      21561.422     -2809.371      -2809.4006      70303.038     -0.0040930816  -1.5554167e-08 -8.4777813e-09  5.4069576      4.6825628      306.09178      7749.7597    
      2017   0             -662.46831      21547.385     -2824.3539     -2824.3835      70290.891     -0.0041179421  -1.5499127e-08 -8.5188646e-09  5.4069359      4.682544       306.12234      7750.4714    
      2018   0             -662.50699      21533.377     -2839.2956     -2839.3252      70278.751     -0.0041429796  -5.6104274e-10  8.7027717e-09  5.4069142      4.6825252      306.1529       7751.1827    
      2019   0             -662.54567      21519.399     -2854.1963     -2854.2259      70266.618     -0.0041678001   6.8317578e-09 -1.1858284e-08  5.4068923      4.6825062      306.18346      7751.8937    
      2020   0             -662.58434      21505.45      -2869.0559     -2869.0855      70254.493     -0.0041927938  -3.3950078e-09  1.8502205e-09  5.4068703      4.6824871      306.21402      7752.6042    
      2021   0             -662.62301      21491.532     -2883.8746     -2883.9042      70242.374     -0.0042175674  -1.566817e-08   7.693863e-09   5.4068481      4.682468       306.24458      7753.3145    
      2022   0             -662.66167      21477.643     -2898.6524     -2898.6821      70230.262     -0.0042424531  -2.4547636e-09 -2.5930643e-08  5.4068259      4.6824487      306.27514      7754.0243    
      2023   0             -662.70033      21463.783     -2913.3895     -2913.4192      70218.157     -0.0042673251  -8.0726734e-09 -4.0374377e-09  5.4068035      4.6824293      306.3057       7754.7338    
      2024   0             -662.73897      21449.953     -2928.0859     -2928.1156      70206.059     -0.0042922202  -6.4000069e-10  7.6330357e-11  5.406781       4.6824098      306.33626      7755.443     
      2025   0             -662.77762      21436.152     -2942.7418     -2942.7714      70193.968     -0.0043170729  -1.5574373e-08 -1.7064147e-08  5.4067584      4.6823903      306.36682      7756.1518    
      2026   0             -662.81625      21422.38      -2957.3571     -2957.3867      70181.884     -0.0043418155  -6.4017728e-09 -3.0680665e-09  5.4067356      4.6823706      306.39738      7756.8602    
      2027   0             -662.85489      21408.638     -2971.9319     -2971.9616      70169.807     -0.0043667643  -8.1254884e-09 -4.1735396e-09  5.4067128      4.6823508      306.42794      7757.5683    
      2028   0             -662.89351      21394.925     -2986.4664     -2986.4961      70157.737     -0.004391494    1.2604583e-09  1.2413827e-09  5.4066898      4.6823309      306.4585       7758.2761    
      2029   0             -662.93213      21381.241     -3000.9607     -3000.9904      70145.673     -0.0044163197  -8.0653176e-09 -4.1452681e-09  5.4066667      4.6823109      306.48906      7758.9834    
      2030   0             -662.97074      21367.585     -3015.4148     -3015.4445      70133.616     -0.0044411659  -5.7876621e-10  2.842483e-10   5.4066435      4.6822908      306.51962      7759.6905    
      2031   0             -663.00935      21353.959     -3029.8287     -3029.8585      70121.565     -0.0044660041   6.8976196e-09  4.6308083e-09  5.4066202      4.6822706      306.55018      7760.3972    
      2032   0             -663.04795      21340.362     -3044.2027     -3044.2324      70109.522     -0.0044907881  -5.4419055e-10  9.6810179e-11  5.4065967      4.6822503      306.58074      7761.1035    
      2033   0             -663.08655      21326.794     -3058.5367     -3058.5664      70097.485     -0.0045154943   6.9374318e-09 -4.0938914e-09  5.4065732      4.6822299      306.6113       7761.8094    
      2034   0             -663.12514      21313.254     -3072.8308     -3072.8606      70085.454     -0.0045403817   2.2130302e-09 -1.5718527e-08  5.4065495      4.6822093      306.64186      7762.5151    
      2035   0             -663.16372      21299.744     -3087.0852     -3087.115       70073.431     -0.0045650214  -8.1386361e-09 -4.1602362e-09  5.4065257      4.6821887      306.67242      7763.2203    
      2036   0             -663.2023       21286.261     -3101.2998     -3101.3296      70061.414     -0.004589819   -6.2170602e-10 -8.6386344e-09  5.4065018      4.682168       306.70298      7763.9253    
      2037   0             -663.24088      21272.808     -3115.4748     -3115.5047      70049.403     -0.0046145985   1.5268535e-08 -3.7570215e-10  5.4064777      4.6821472      306.73354      7764.6298    
      2038   0             -663.27944      21259.383     -3129.6103     -3129.6402      70037.399     -0.0046393615  -4.3570167e-09 -1.921698e-08   5.4064536      4.6821263      306.76411      7765.3341    
      2039   0             -663.31801      21245.986     -3143.7064     -3143.7362      70025.401     -0.0046639789  -8.1444787e-09  5.5179722e-09  5.4064293      4.6821053      306.79467      7766.038     
      2040   0             -663.35656      21232.618     -3157.763      -3157.7929      70013.41      -0.0046887212  -6.6985054e-10  1.647803e-08   5.4064049      4.6820842      306.82523      7766.7415    
      2041   0             -663.39511      21219.278     -3171.7804     -3171.8103      70001.425     -0.0047134789   6.8268738e-09  1.3038186e-08  5.4063804      4.6820629      306.85579      7767.4447    
      2042   0             -663.43366      21205.966     -3185.7585     -3185.7884      69989.446     -0.0047382051  -7.1515951e-10  8.8867362e-09  5.4063558      4.6820416      306.88635      7768.1475    
      2043   0             -663.47219      21192.683     -3199.6975     -3199.7274      69977.474     -0.0047628768  -8.0052523e-09 -4.1117954e-09  5.4063311      4.6820202      306.91691      7768.85      
      2044   0             -663.51073      21179.428     -3213.5975     -3213.6274      69965.509     -0.0047876221  -8.2653391e-09 -4.2257114e-09  5.4063063      4.6819987      306.94747      7769.5522    
      2045   0             -663.54925      21166.201     -3227.4584     -3227.4883      69953.549     -0.0048122552  -6.7980339e-10  1.2673059e-10  5.4062813      4.6819771      306.97803      7770.254     
      2046   0             -663.58777      21153.002     -3241.2805     -3241.3104      69941.596     -0.0048370302  -6.204111e-10   2.6369303e-11  5.4062562      4.6819554      307.00859      7770.9554    
      2047   0             -663.62629      21139.831     -3255.0637     -3255.0936      69929.649     -0.0048616125  -6.7894829e-10  1.0807509e-08  5.406231       4.6819336      307.03915      7771.6566    
      2048   0             -663.6648       21126.687     -3268.8081     -3268.8381      69917.708     -0.004886291   -8.1349273e-09 -4.1450926e-09  5.4062057      4.6819116      307.06971      7772.3573    
      2049   0             -663.7033       21113.572     -3282.514      -3282.5439      69905.774     -0.0049109846  -7.7621948e-10  2.61791e-10    5.4061803      4.6818896      307.10027      7773.0578    
      2050   0             -663.7418       21100.484     -3296.1812     -3296.2112      69893.845     -0.004935647    6.802292e-09  -4.2204963e-09  5.4061548      4.6818675      307.13083      7773.7579    
      2051   0             -663.78029      21087.424     -3309.8099     -3309.8399      69881.923     -0.0049601862  -6.9554314e-10  1.7289738e-08  5.4061292      4.6818453      307.16139      7774.4576    
      2052   0             -663.81878      21074.392     -3323.4001     -3323.4302      69870.007     -0.0049848035  -4.3954372e-09 -1.8946355e-09  5.4061034      4.681823       307.19195      7775.157     
      2053   0             -663.85726      21061.387     -3336.9521     -3336.9821      69858.097     -0.0050095866  -7.4958745e-10 -8.7842279e-12  5.4060775      4.6818006      307.22251      7775.8561    
      2054   0             -663.89574      21048.41      -3350.4657     -3350.4957      69846.193     -0.0050341599  -6.7339696e-10 -8.5082242e-09  5.4060516      4.6817781      307.25307      7776.5549    
      2055   0             -663.93421      21035.461     -3363.9411     -3363.9712      69834.295     -0.0050587252  -6.8358291e-10 -3.0270867e-09  5.4060255      4.6817555      307.28363      7777.2533    
      2056   0             -663.97267      21022.539     -3377.3784     -3377.4085      69822.402     -0.0050833745  -1.5516086e-08  1.7493468e-08  5.4059993      4.6817328      307.31419      7777.9513    
      2057   0             -664.01113      21009.644     -3390.7777     -3390.8078      69810.516     -0.0051079657   2.1777063e-09  1.7445067e-09  5.4059729      4.68171        307.34475      7778.6491    
      2058   0             -664.04958      20996.776     -3404.139      -3404.1691      69798.636     -0.0051324883  -5.7071864e-10  1.1209499e-08  5.4059465      4.6816871      307.37531      7779.3465    
      2059   0             -664.08803      20983.936     -3417.4624     -3417.4925      69786.762     -0.0051571606  -1.5637753e-08  2.253405e-10   5.40592        4.6816642      307.40587      7780.0435    
      2060   0             -664.12647      20971.122     -3430.748      -3430.7781      69774.893     -0.0051816518  -8.0749537e-09 -4.2576762e-09  5.4058933      4.6816411      307.43643      7780.7402    
      2061   0             -664.16491      20958.336     -3443.9958     -3444.0259      69763.031     -0.0052062045  -6.1591797e-10  8.7874377e-09  5.4058666      4.6816179      307.46699      7781.4366    
      2062   0             -664.20334      20945.577     -3457.206      -3457.2361      69751.174     -0.0052307608   1.4267246e-08 -8.3119545e-09  5.4058397      4.6815946      307.49755      7782.1327    
      2063   0             -664.24176      20932.845     -3470.3786     -3470.4087      69739.323     -0.0052553787  -1.560144e-08  -8.5130678e-09  5.4058127      4.6815713      307.52811      7782.8284    
      2064   0             -664.28018      20920.14      -3483.5136     -3483.5438      69727.478     -0.0052798041  -5.6894974e-10  3.2871839e-10  5.4057856      4.6815478      307.55867      7783.5238    
      2065   0             -664.31859      20907.462     -3496.6113     -3496.6414      69715.639     -0.0053044059  -7.341575e-10  -8.46877e-09    5.4057584      4.6815242      307.58923      7784.2189    
      2066   0             -664.357        20894.811     -3509.6715     -3509.7017      69703.805     -0.0053290001  -6.799856e-10   4.7160292e-11  5.4057311      4.6815006      307.61979      7784.9136    
      2067   0             -664.3954       20882.186     -3522.6945     -3522.7247      69691.977     -0.0053535174  -6.0827695e-10  1.7365137e-08  5.4057037      4.6814768      307.65035      7785.608     
      2068   0             -664.4338       20869.588     -3535.6803     -3535.7105      69680.154     -0.0053779576   1.4262531e-08 -8.4730836e-09  5.4056761      4.681453       307.68091      7786.302     
      2069   0             -664.47219      20857.016     -3548.6289     -3548.6592      69668.337     -0.0054025056  -5.7088898e-10  8.9039676e-09  5.4056485      4.6814291      307.71147      7786.9958    
      2070   0             -664.51057      20844.472     -3561.5405     -3561.5707      69656.526     -0.0054269806  -1.2828875e-08 -1.3609483e-09  5.4056208      4.681405       307.74203      7787.6892    
      2071   0             -664.54895      20831.953     -3574.4151     -3574.4454      69644.721     -0.0054515089  -6.5702667e-10 -8.4934766e-09  5.4055929      4.6813809      307.77259      7788.3823    
      2072   0             -664.58732      20819.462     -3587.2528     -3587.283       69632.921     -0.0054758705  -1.6866326e-09  1.6994942e-08  5.4055649      4.6813567      307.80315      7789.075     
      2073   0             -664.62569      20806.996     -3600.0536     -3600.0839      69621.126     -0.0055003657  -6.3718062e-10  2.3053955e-10  5.4055369      4.6813324      307.83372      7789.7675    
      2074   0             -664.66405      20794.557     -3612.8177     -3612.848       69609.337     -0.0055248747  -7.774082e-10   1.3151642e-10  5.4055087      4.681308       307.86428      7790.4596    
      2075   0             -664.70241      20782.144     -3625.5451     -3625.5754      69597.553     -0.005549314    3.9414895e-09 -2.5796848e-09  5.4054804      4.6812835      307.89484      7791.1513    
      2076   0             -664.74076      20769.758     -3638.2359     -3638.2662      69585.775     -0.0055738003  -6.793809e-10   8.7318709e-09  5.405452       4.6812589      307.9254       7791.8428    
      2077   0             -664.77911      20757.397     -3650.8901     -3650.9205      69574.002     -0.0055982589   2.1007808e-09 -1.4627307e-09  5.4054235      4.6812342      307.95596      7792.5339    
      2078   0             -664.81745      20745.063     -3663.5079     -3663.5382      69562.235     -0.0056225917  -8.0985373e-09  2.163408e-08   5.4053949      4.6812094      307.98652      7793.2247    
      2079   0             -664.85578      20732.755     -3676.0893     -3676.1196      69550.473     -0.0056471256  -4.460812e-09  -2.0339491e-09  5.4053662      4.6811845      308.01708      7793.9152    
      2080   0             -664.89411      20720.472     -3688.6343     -3688.6647      69538.716     -0.0056714561   6.8074668e-09  4.4976602e-09  5.4053373      4.6811596      308.04764      7794.6053    
      2081   0             -664.93243      20708.216     -3701.1432     -3701.1735      69526.965     -0.0056958998  -6.2650608e-10  1.0806865e-10  5.4053084      4.6811345      308.0782       7795.2951    
      2082   0             -664.97075      20695.985     -3713.6158     -3713.6462      69515.218     -0.0057203012  -6.4251351e-10  1.9238899e-10  5.4052794      4.6811094      308.10876      7795.9846    
      2083   0             -665.00906      20683.781     -3726.0523     -3726.0827      69503.478     -0.0057447411  -7.3809516e-10  8.7056535e-09  5.4052502      4.6810841      308.13932      7796.6738    
      2084   0             -665.04737      20671.602     -3738.4528     -3738.4832      69491.742     -0.0057691215  -4.3683197e-09 -2.0100549e-09  5.405221       4.6810588      308.16988      7797.3627    
      2085   0             -665.08567      20659.449     -3750.8174     -3750.8478      69480.011     -0.0057934366  -6.3796362e-10  2.9051433e-10  5.4051916      4.6810334      308.20044      7798.0512    
      2086   0             -665.12396      20647.321     -3763.1461     -3763.1765      69468.286     -0.0058179211   2.3355874e-10 -4.7266451e-09  5.4051622      4.6810079      308.231        7798.7395    
      2087   0             -665.16225      20635.219     -3775.4389     -3775.4694      69456.566     -0.0058421938  -6.3347222e-10  2.0252136e-10  5.4051326      4.6809823      308.26156      7799.4274    
      2088   0             -665.20053      20623.143     -3787.6961     -3787.7265      69444.851     -0.0058666183  -8.078248e-10   8.7277187e-09  5.4051029      4.6809566      308.29212      7800.115     
      2089   0             -665.23881      20611.092     -3799.9175     -3799.948       69433.141     -0.0058909351  -6.3912503e-09 -1.1810569e-08  5.4050732      4.6809308      308.32268      7800.8022    
      2090   0             -665.27709      20599.066     -3812.1034     -3812.1338      69421.436     -0.0059152796   2.1545496e-09  7.0250867e-09  5.4050433      4.6809049      308.35324      7801.4892    
      2091   0             -665.31535      20587.066     -3824.2537     -3824.2842      69409.736     -0.0059396397  -6.7118565e-10  8.7545954e-11  5.4050133      4.6808789      308.3838       7802.1758    
      2092   0             -665.35361      20575.091     -3836.3686     -3836.3991      69398.041     -0.0059639766  -8.1556473e-09 -4.1442068e-09  5.4049832      4.6808529      308.41436      7802.8621    
      2093   0             -665.39187      20563.141     -3848.4481     -3848.4786      69386.351     -0.0059882487   6.8857372e-09 -4.0760063e-09  5.404953       4.6808268      308.44492      7803.5481    
      2094   0             -665.43012      20551.217     -3860.4923     -3860.5228      69374.666     -0.0060126489  -7.2264714e-09  4.0694487e-09  5.4049227      4.6808005      308.47548      7804.2338    
      2095   0             -665.46836      20539.318     -3872.5013     -3872.5318      69362.986     -0.0060368483  -1.6015278e-09 -9.0986618e-09  5.4048923      4.6807742      308.50604      7804.9192    
      2096   0             -665.5066       20527.443     -3884.4751     -3884.5056      69351.311     -0.0060611679  -6.2130326e-10  1.2761511e-11  5.4048618      4.6807478      308.5366       7805.6043    
      2097   0             -665.54484      20515.594     -3896.4138     -3896.4443      69339.64      -0.0060854496  -4.6418657e-09  9.9808134e-09  5.4048312      4.6807213      308.56716      7806.289     
      2098   0             -665.58307      20503.77      -3908.3174     -3908.348       69327.975     -0.0061097581  -7.363923e-10   8.6037597e-09  5.4048005      4.6806947      308.59772      7806.9734    
      2099   0             -665.62129      20491.97      -3920.1862     -3920.2167      69316.314     -0.0061340879  -8.168135e-09  -4.1664487e-09  5.4047697      4.680668       308.62828      7807.6576    
      2100   0             -665.65951      20480.196     -3932.02       -3932.0506      69304.659     -0.0061583416  -7.2751561e-10  4.023934e-10   5.4047388      4.6806413      308.65884      7808.3414    
Loop time of 0.0831014 on 6 procs for 100 steps with 280 atoms

569.3% CPU use with 1 MPI tasks x 6 OpenMP threads

Minimization stats:
  Stopping criterion = max iterations
  Energy initial, next-to-last, final = 
     -661.809777289186  -665.621244963044  -665.659461528198
  Force two-norm initial, final = 363.41568 357.48254
  Force max component initial, final = 340.49403 334.41305
  Final line search alpha, max atom move = 2.9897769e-07 9.9982041e-05
  Iterations, force evaluations = 100 100

MPI task timing breakdown:
Section |  min time  |  avg time  |  max time  |%varavg| %total
---------------------------------------------------------------
Pair    | 0.058516   | 0.058516   | 0.058516   |   0.0 | 70.42
Neigh   | 0.003792   | 0.003792   | 0.003792   |   0.0 |  4.56
Comm    | 0.0022627  | 0.0022627  | 0.0022627  |   0.0 |  2.72
Output  | 0.01067    | 0.01067    | 0.01067    |   0.0 | 12.84
Modify  | 0.0018837  | 0.0018837  | 0.0018837  |   0.0 |  2.27
Other   |            | 0.005977   |            |       |  7.19

Nlocal:            280 ave         280 max         280 min
Histogram: 1 0 0 0 0 0 0 0 0 0
Nghost:           3248 ave        3248 max        3248 min
Histogram: 1 0 0 0 0 0 0 0 0 0
Neighs:              0 ave           0 max           0 min
Histogram: 1 0 0 0 0 0 0 0 0 0
FullNghs:         9360 ave        9360 max        9360 min
Histogram: 1 0 0 0 0 0 0 0 0 0

Total # of neighbors = 9360
Ave neighs/atom = 33.428571
Neighbor list builds = 5
Dangerous builds = 0

variable tmp equal pxx
variable pxx0 equal ${tmp}
variable pxx0 equal -3932.02000466424
variable tmp equal pyy
variable pyy0 equal ${tmp}
variable pyy0 equal -3932.05058213205
variable tmp equal pzz
variable pzz0 equal ${tmp}
variable pzz0 equal 69304.6585775435
variable tmp equal pyz
variable pyz0 equal ${tmp}
variable pyz0 equal 4.02393402556162e-10
variable tmp equal pxz
variable pxz0 equal ${tmp}
variable pxz0 equal -7.27515608244655e-10
variable tmp equal pxy
variable pxy0 equal ${tmp}
variable pxy0 equal -0.00615834163091032

variable tmp equal lx
variable lx0 equal ${tmp}
variable lx0 equal 5.40473882745895
variable tmp equal ly
variable ly0 equal ${tmp}
variable ly0 equal 4.6806412501908
variable tmp equal lz
variable lz0 equal ${tmp}
variable lz0 equal 308.658842703544

# These formulas define the derivatives w.r.t. strain components
# Constants uses $, variables use v_
variable d1 equal -(v_pxx1-${pxx0})/(v_delta/v_len0)*${cfac}
variable d1 equal -(v_pxx1--3932.02000466424)/(v_delta/v_len0)*${cfac}
variable d1 equal -(v_pxx1--3932.02000466424)/(v_delta/v_len0)*0.0001
variable d2 equal -(v_pyy1-${pyy0})/(v_delta/v_len0)*${cfac}
variable d2 equal -(v_pyy1--3932.05058213205)/(v_delta/v_len0)*${cfac}
variable d2 equal -(v_pyy1--3932.05058213205)/(v_delta/v_len0)*0.0001
variable d3 equal -(v_pzz1-${pzz0})/(v_delta/v_len0)*${cfac}
variable d3 equal -(v_pzz1-69304.6585775435)/(v_delta/v_len0)*${cfac}
variable d3 equal -(v_pzz1-69304.6585775435)/(v_delta/v_len0)*0.0001
variable d4 equal -(v_pyz1-${pyz0})/(v_delta/v_len0)*${cfac}
variable d4 equal -(v_pyz1-4.02393402556162e-10)/(v_delta/v_len0)*${cfac}
variable d4 equal -(v_pyz1-4.02393402556162e-10)/(v_delta/v_len0)*0.0001
variable d5 equal -(v_pxz1-${pxz0})/(v_delta/v_len0)*${cfac}
variable d5 equal -(v_pxz1--7.27515608244655e-10)/(v_delta/v_len0)*${cfac}
variable d5 equal -(v_pxz1--7.27515608244655e-10)/(v_delta/v_len0)*0.0001
variable d6 equal -(v_pxy1-${pxy0})/(v_delta/v_len0)*${cfac}
variable d6 equal -(v_pxy1--0.00615834163091032)/(v_delta/v_len0)*${cfac}
variable d6 equal -(v_pxy1--0.00615834163091032)/(v_delta/v_len0)*0.0001

displace_atoms all random ${atomjiggle} ${atomjiggle} ${atomjiggle} 87287 units box
displace_atoms all random 1e-05 ${atomjiggle} ${atomjiggle} 87287 units box
displace_atoms all random 1e-05 1e-05 ${atomjiggle} 87287 units box
displace_atoms all random 1e-05 1e-05 1e-05 87287 units box
Displacing atoms ...

# Write restart
unfix 3
write_restart restart.equil
System init for write_restart ...
Last active /omp style is pair_style tersoff/omp

variable dir equal 1
include in.displace.mod
# NOTE: This script should not need to be
# modified. See in.elastic for more info.
#
# Find which reference length to use

if "${dir} == 1" then    "variable len0 equal ${lx0}"
variable len0 equal ${lx0}
variable len0 equal 5.40473882745895
if "${dir} == 2" then    "variable len0 equal ${ly0}"
if "${dir} == 3" then    "variable len0 equal ${lz0}"
if "${dir} == 4" then    "variable len0 equal ${lz0}"
if "${dir} == 5" then    "variable len0 equal ${lz0}"
if "${dir} == 6" then    "variable len0 equal ${ly0}"

# Reset box and simulation parameters

clear
  using 6 OpenMP thread(s) per MPI task
package omp 0
using multi-threaded neighbor list subroutines
box tilt large

The 'box' command has been removed and will be ignored

read_restart restart.equil
Reading restart file ...
  restart file = 7 Feb 2024, LAMMPS = 7 Feb 2024
  restoring atom style atomic from restart
  triclinic box = (0.31473059 0.27256462 -115.05892) to (5.7194694 4.9532059 193.59992) with tilt (-2.7023695 0 0)
WARNING: Triclinic box skew is large. LAMMPS will run inefficiently. (src/domain.cpp:219)
  1 by 1 by 1 MPI processor grid
  pair style tersoff stores no restart info
  280 atoms
  read_restart CPU = 0.000 seconds
include in.potential.mod
# NOTE: This script can be modified for different pair styles
# See in.elastic for more info.

# Choose potential
pair_style tersoff
pair_coeff * * WB.tersoff W B

# Setup neighbor style
neighbor 1.0 nsq
neigh_modify once no every 1 delay 0 check yes

# Setup minimization style
min_style	cg
min_modify dmax ${dmax} line quadratic
min_modify dmax 0.01 line quadratic

# Setup output
thermo 1
thermo_style custom step temp pe press pxx pyy pzz pxy pxz pyz lx ly lz vol
thermo_modify norm no

dump 2 all atom 10 dump.W2B5_elastic.lammpstrj

# Negative deformation

variable delta equal -${up}*${len0}
variable delta equal -1e-06*${len0}
variable delta equal -1e-06*5.40473882745895
variable deltaxy equal -${up}*xy
variable deltaxy equal -1e-06*xy
variable deltaxz equal -${up}*xz
variable deltaxz equal -1e-06*xz
variable deltayz equal -${up}*yz
variable deltayz equal -1e-06*yz
if "${dir} == 1" then    "change_box all x delta 0 ${delta} xy delta ${deltaxy} xz delta ${deltaxz} remap units box"
change_box all x delta 0 ${delta} xy delta ${deltaxy} xz delta ${deltaxz} remap units box
change_box all x delta 0 -5.40473882745895e-06 xy delta ${deltaxy} xz delta ${deltaxz} remap units box
change_box all x delta 0 -5.40473882745895e-06 xy delta 2.70236948577776e-06 xz delta ${deltaxz} remap units box
change_box all x delta 0 -5.40473882745895e-06 xy delta 2.70236948577776e-06 xz delta -0 remap units box
Changing box ...
WARNING: Triclinic box skew is large. LAMMPS will run inefficiently. (src/domain.cpp:219)
  triclinic box = (0.31473059 0.27256462 -115.05892) to (5.719464 4.9532059 193.59992) with tilt (-2.7023695 0 0)
WARNING: Triclinic box skew is large. LAMMPS will run inefficiently. (src/domain.cpp:219)
  triclinic box = (0.31473059 0.27256462 -115.05892) to (5.719464 4.9532059 193.59992) with tilt (-2.7023668 0 0)
WARNING: Triclinic box skew is large. LAMMPS will run inefficiently. (src/domain.cpp:219)
  triclinic box = (0.31473059 0.27256462 -115.05892) to (5.719464 4.9532059 193.59992) with tilt (-2.7023668 0 0)
if "${dir} == 2" then    "change_box all y delta 0 ${delta} yz delta ${deltayz} remap units box"
if "${dir} == 3" then    "change_box all z delta 0 ${delta} remap units box"
if "${dir} == 4" then    "change_box all yz delta ${delta} remap units box"
if "${dir} == 5" then    "change_box all xz delta ${delta} remap units box"
if "${dir} == 6" then    "change_box all xy delta ${delta} remap units box"

# Relax atoms positions

minimize ${etol} ${ftol} ${maxiter} ${maxeval}
minimize 0 ${ftol} ${maxiter} ${maxeval}
minimize 0 1e-10 ${maxiter} ${maxeval}
minimize 0 1e-10 100 ${maxeval}
minimize 0 1e-10 100 1000
Last active /omp style is pair_style tersoff/omp
Neighbor list info ...
  update: every = 1 steps, delay = 0 steps, check = yes
  max neighbors/atom: 2000, page size: 100000
  master list distance cutoff = 6.240189
  ghost atom cutoff = 6.240189
  1 neighbor lists, perpetual/occasional/extra = 1 0 0
  (1) pair tersoff/omp, perpetual
      attributes: full, newton on, omp
      pair build: full/nsq/omp
      stencil: none
      bin: none
Per MPI rank memory allocation (min/avg/max) = 8.744 | 8.744 | 8.744 Mbytes
   Step          Temp          PotEng         Press           Pxx            Pyy            Pzz            Pxy            Pxz            Pyz             Lx             Ly             Lz           Volume    
      2100   0             -665.65825      20481.316     -3930.3555     -3930.8648      69305.169     -0.028060436    0.12076242     0.61106251     5.4047334      4.6806413      308.65884      7808.3336    
      2101   0             -676.33066      15827.94      -9665.8063     -9666.3282      66815.955     -0.041072184    0.10727387     0.542809       5.4047334      4.6806413      308.65884      7808.3336    
      2102   0             -686.25458      11341.134     -14901.014     -14901.545      63825.962     -0.050039101    0.094978685    0.48059412     5.4047334      4.6806413      308.65884      7808.3336    
      2103   0             -695.40328      7032.5094     -19631.279     -19631.818      60360.625     -0.055642412    0.083772698    0.42389071     5.4047334      4.6806413      308.65884      7808.3336    
      2104   0             -703.7564       2912.1167     -23856.559     -23857.102      56450.011     -0.058462763    0.073560128    0.3722142      5.4047334      4.6806413      308.65884      7808.3336    
      2105   0             -711.29974     -1011.5608     -27581.217     -27581.762      52128.297     -0.058994924    0.064252035    0.32511441     5.4047334      4.6806413      308.65884      7808.3336    
      2106   0             -718.02518     -4731.6034     -30813.734     -30814.279      47433.202     -0.057659476    0.055764744    0.28216797     5.4047334      4.6806413      308.65884      7808.3336    
      2107   0             -723.93037     -8242.6354     -33566.378     -33566.921      42405.393     -0.054811488    0.048018295    0.2429704      5.4047334      4.6806413      308.65884      7808.3336    
      2108   0             -729.01855     -11540.791     -35854.849     -35855.389      37087.863     -0.050746675    0.040934626    0.20712662     5.4047334      4.6806413      308.65884      7808.3336    
      2109   0             -733.29813     -14623.67      -37697.894     -37698.429      31525.313     -0.045704399    0.034434861    0.17423755     5.4047334      4.6806413      308.65884      7808.3336    
      2110   0             -736.78243     -17490.273     -39116.909     -39117.437      25763.527     -0.03986588     0.02843499     0.14387796     5.4047334      4.6806413      308.65884      7808.3336    
      2111   0             -739.48926     -20140.941     -40135.532     -40136.051      19848.761     -0.033343514    0.022837047    0.11555246     5.4047334      4.6806413      308.65884      7808.3336    
      2112   0             -741.44049     -22577.272     -40779.236     -40779.745      13827.165     -0.026146593    0.017508879    0.08859208     5.4047334      4.6806413      308.65884      7808.3336    
      2113   0             -742.66169     -24802.034     -41074.92      -41075.416      7744.2336     -0.018068333    0.012222311    0.061842469    5.4047334      4.6806413      308.65884      7808.3336    
      2114   0             -743.18163     -26819.045     -41050.526     -41051.006      1644.3965     -0.0081490554   0.0063683613   0.032222532    5.4047334      4.6806413      308.65884      7808.3336    
      2115   0             -743.20582     -27338.139     -40991.471     -40991.94      -31.005658     -0.0016684838   0.0027872254   0.014102945    5.4047334      4.6806413      308.65884      7808.3336    
      2116   0             -743.20583     -27328.76      -40992.751     -40993.215     -0.31447291     0.0010603443   0.0013017683   0.0065870841   5.4047334      4.6806413      308.65884      7808.3336    
      2117   0             -743.20583     -27328.588     -40992.776     -40993.237      0.24823387     0.0033649278   4.6935467e-05  0.00023818518  5.4047334      4.6806413      308.65884      7808.3336    
      2118   0             -743.20583     -27328.669     -40992.767     -40993.224     -0.015415986    0.0051855023  -0.00094431689 -0.0047768612   5.4047334      4.6806413      308.65884      7808.3336    
      2119   0             -743.20583     -27328.663     -40992.763     -40993.23       0.0028164653  -0.00050073415  0.0021525703   0.010891103    5.4047334      4.6806413      308.65884      7808.3336    
      2120   0             -743.20583     -27328.665     -40992.772     -40993.22      -0.0030130611   0.011072615   -0.0041505339  -0.020998802    5.4047334      4.6806413      308.65884      7808.3336    
      2121   0             -743.20583     -27328.662     -40992.765     -40993.228      0.0050515911   0.0019053429   0.00084217837  0.0042609117   5.4047334      4.6806413      308.65884      7808.3336    
      2122   0             -743.20583     -27328.667     -40992.762     -40993.229     -0.010981789   -0.00063826819  0.0022275487   0.011269931    5.4047334      4.6806413      308.65884      7808.3336    
      2123   0             -743.20583     -27328.66      -40992.767     -40993.226      0.011732278    0.0040197689  -0.00030932262 -0.0015650014   5.4047334      4.6806413      308.65884      7808.3336    
      2124   0             -743.20583     -27328.671     -40992.766     -40993.224     -0.022142783    0.0046377281  -0.00064591291 -0.003267834    5.4047334      4.6806413      308.65884      7808.3336    
      2125   0             -743.20583     -27328.662     -40992.765     -40993.227      0.0050702855   0.0027639142   0.00037464719  0.0018952034   5.4047334      4.6806413      308.65884      7808.3336    
      2126   0             -743.20583     -27328.664     -40992.766     -40993.226     -0.00015850881  0.0034534325  -9.1797762e-07 -3.5692674e-06  5.4047334      4.6806413      308.65884      7808.3336    
      2127   0             -743.20583     -27328.664     -40992.766     -40993.226      0.00048878901  0.0034524119  -3.0574904e-07 -2.9439294e-06  5.4047334      4.6806413      308.65884      7808.3336    
      2128   0             -743.20583     -27328.664     -40992.766     -40993.226     -2.0437726e-05  0.0034520444  -1.2473896e-07 -1.2737118e-06  5.4047334      4.6806413      308.65884      7808.3336    
      2129   0             -743.20583     -27328.664     -40992.766     -40993.226      8.2612538e-07  0.0034515141   1.0903333e-07  1.2335047e-06  5.4047334      4.6806413      308.65884      7808.3336    
      2130   0             -743.20583     -27328.664     -40992.766     -40993.226     -3.3992217e-07  0.0034519272  -5.2022521e-08 -7.0967979e-07  5.4047334      4.6806413      308.65884      7808.3336    
      2131   0             -743.20583     -27328.664     -40992.766     -40993.226      3.1880683e-07  0.0034518012  -8.698914e-09  -1.230139e-07   5.4047334      4.6806413      308.65884      7808.3336    
      2132   0             -743.20583     -27328.664     -40992.766     -40993.226     -2.9244633e-06  0.0034513504   1.3992877e-07  2.0208052e-06  5.4047334      4.6806413      308.65884      7808.3336    
      2133   0             -743.20583     -27328.664     -40992.766     -40993.226      2.9311473e-06  0.0034517638  -1.4112942e-08  3.5433982e-08  5.4047334      4.6806413      308.65884      7808.3336    
      2134   0             -743.20583     -27328.664     -40992.766     -40993.226     -1.3477001e-06  0.0034520472  -7.1490308e-08 -1.2905617e-06  5.4047334      4.6806413      308.65884      7808.3336    
      2135   0             -743.20583     -27328.664     -40992.766     -40993.226     -2.4848504e-08  0.0034517857  -2.079868e-09   2.7617295e-09  5.4047334      4.6806413      308.65884      7808.3336    
      2136   0             -743.20583     -27328.664     -40992.766     -40993.226      1.9796523e-08  0.0034517755   5.3786198e-09  5.074839e-09   5.4047334      4.6806413      308.65884      7808.3336    
      2137   0             -743.20583     -27328.664     -40992.766     -40993.226     -1.8912509e-08  0.0034517918  -5.4315874e-09 -1.5046029e-09  5.4047334      4.6806413      308.65884      7808.3336    
      2138   0             -743.20583     -27328.664     -40992.766     -40993.226      3.7221108e-08  0.0034517909   2.0835826e-09  6.0972832e-10  5.4047334      4.6806413      308.65884      7808.3336    
      2139   0             -743.20583     -27328.664     -40992.766     -40993.226      3.1592288e-08  0.0034517856  -5.3215123e-10 -3.0062899e-09  5.4047334      4.6806413      308.65884      7808.3336    
      2140   0             -743.20583     -27328.664     -40992.766     -40993.226     -7.5629624e-08  0.0034517838   1.7117774e-08  8.193671e-09   5.4047334      4.6806413      308.65884      7808.3336    
      2141   0             -743.20583     -27328.664     -40992.766     -40993.226     -5.9125646e-08  0.0034517696  -2.7438592e-09  1.6037434e-10  5.4047334      4.6806413      308.65884      7808.3336    
      2142   0             -743.20583     -27328.664     -40992.766     -40993.226      6.7304738e-08  0.00345177    -1.2771629e-08 -5.5387466e-09  5.4047334      4.6806413      308.65884      7808.3336    
      2143   0             -743.20583     -27328.664     -40992.766     -40993.226      3.8863077e-08  0.0034517798   5.5227092e-09  3.6302919e-09  5.4047334      4.6806413      308.65884      7808.3336    
      2144   0             -743.20583     -27328.664     -40992.766     -40993.226     -6.6225856e-08  0.0034518009   8.2476151e-09  3.9794706e-09  5.4047334      4.6806413      308.65884      7808.3336    
      2145   0             -743.20583     -27328.664     -40992.766     -40993.226     -3.1841597e-08  0.0034517927  -1.3829371e-08 -9.2113191e-09  5.4047334      4.6806413      308.65884      7808.3336    
      2146   0             -743.20583     -27328.664     -40992.766     -40993.226      3.1288057e-08  0.0034517955   6.6186071e-09  3.3100401e-09  5.4047334      4.6806413      308.65884      7808.3336    
      2147   0             -743.20583     -27328.664     -40992.766     -40993.226      6.5934266e-08  0.0034517775   9.0567765e-09  5.2879795e-09  5.4047334      4.6806413      308.65884      7808.3336    
      2148   0             -743.20583     -27328.664     -40992.766     -40993.226     -6.2073618e-08  0.0034518023  -1.0735464e-08 -5.3588136e-09  5.4047334      4.6806413      308.65884      7808.3336    
      2149   0             -743.20583     -27328.664     -40992.766     -40993.226     -1.5587575e-08  0.0034517906  -7.4652439e-09 -3.5276751e-09  5.4047334      4.6806413      308.65884      7808.3336    
      2150   0             -743.20583     -27328.664     -40992.766     -40993.226      3.6429761e-08  0.0034517897   2.02407e-08    1.1579028e-08  5.4047334      4.6806413      308.65884      7808.3336    
      2151   0             -743.20583     -27328.664     -40992.766     -40993.226      2.8849886e-08  0.0034517825   4.0151904e-09  1.6584165e-09  5.4047334      4.6806413      308.65884      7808.3336    
      2152   0             -743.20583     -27328.664     -40992.766     -40993.226     -5.6039169e-08  0.0034517963  -1.785987e-08  -1.1223288e-08  5.4047334      4.6806413      308.65884      7808.3336    
      2153   0             -743.20583     -27328.664     -40992.766     -40993.226     -2.3968674e-09  0.003451792   -3.570516e-09  -2.4056151e-09  5.4047334      4.6806413      308.65884      7808.3336    
      2154   0             -743.20583     -27328.664     -40992.766     -40993.226      4.0994598e-08  0.0034517818   1.6517099e-08  9.6749467e-09  5.4047334      4.6806413      308.65884      7808.3336    
      2155   0             -743.20583     -27328.664     -40992.766     -40993.226      1.3152076e-08  0.0034517993   9.2579346e-09  6.2604787e-09  5.4047334      4.6806413      308.65884      7808.3336    
      2156   0             -743.20583     -27328.664     -40992.766     -40993.226     -1.2341535e-08  0.0034518043  -6.3916465e-09 -3.2016551e-09  5.4047334      4.6806413      308.65884      7808.3336    
      2157   0             -743.20583     -27328.664     -40992.766     -40993.226     -6.9017578e-09  0.0034517973  -2.0940854e-08 -1.1884809e-08  5.4047334      4.6806413      308.65884      7808.3336    
      2158   0             -743.20583     -27328.664     -40992.766     -40993.226     -7.4993135e-09  0.0034518009   9.9789478e-09  5.7081196e-09  5.4047334      4.6806413      308.65884      7808.3336    
      2159   0             -743.20583     -27328.664     -40992.766     -40993.226      6.3946113e-09  0.0034517909   2.4698912e-08  1.4020269e-08  5.4047334      4.6806413      308.65884      7808.3336    
      2160   0             -743.20583     -27328.664     -40992.766     -40993.226     -8.9548838e-09  0.0034517944  -1.353832e-08  -7.9475188e-09  5.4047334      4.6806413      308.65884      7808.3336    
      2161   0             -743.20583     -27328.664     -40992.766     -40993.226     -1.6428164e-08  0.0034517998  -1.6688776e-08 -9.7199061e-09  5.4047334      4.6806413      308.65884      7808.3336    
      2162   0             -743.20583     -27328.664     -40992.766     -40993.226      1.4757353e-08  0.0034517906   1.3064607e-08  7.6252382e-09  5.4047334      4.6806413      308.65884      7808.3336    
      2163   0             -743.20583     -27328.664     -40992.766     -40993.226      2.1404654e-08  0.0034517881   1.1188857e-08  6.6616584e-09  5.4047334      4.6806413      308.65884      7808.3336    
      2164   0             -743.20583     -27328.664     -40992.766     -40993.226     -2.7043488e-08  0.0034518036   6.8917229e-09  3.9918632e-09  5.4047334      4.6806413      308.65884      7808.3336    
      2165   0             -743.20583     -27328.664     -40992.766     -40993.226     -7.5652951e-09  0.0034518012  -1.6156986e-08 -9.042197e-09   5.4047334      4.6806413      308.65884      7808.3336    
      2166   0             -743.20583     -27328.664     -40992.766     -40993.226     -1.0286057e-08  0.0034518013  -1.6242558e-08 -9.2082902e-09  5.4047334      4.6806413      308.65884      7808.3336    
      2167   0             -743.20583     -27328.664     -40992.766     -40993.226      2.1459545e-08  0.0034517892   1.4563448e-08  8.4006997e-09  5.4047334      4.6806413      308.65884      7808.3336    
      2168   0             -743.20583     -27328.664     -40992.766     -40993.226      2.5655521e-08  0.0034517841   2.4656826e-08  1.4197503e-08  5.4047334      4.6806413      308.65884      7808.3336    
      2169   0             -743.20583     -27328.664     -40992.766     -40993.226     -5.6300142e-08  0.0034518061  -1.4048792e-08 -8.1995028e-09  5.4047334      4.6806413      308.65884      7808.3336    
      2170   0             -743.20583     -27328.664     -40992.766     -40993.226     -4.341625e-08   0.0034518083  -1.3987559e-08 -8.1032781e-09  5.4047334      4.6806413      308.65884      7808.3336    
      2171   0             -743.20583     -27328.664     -40992.766     -40993.226      3.2907357e-08  0.0034517956  -1.6795568e-09 -1.0147322e-09  5.4047334      4.6806413      308.65884      7808.3336    
      2172   0             -743.20583     -27328.664     -40992.766     -40993.226      5.800011e-08   0.0034517866   2.1408517e-08  1.2453797e-08  5.4047334      4.6806413      308.65884      7808.3336    
      2173   0             -743.20583     -27328.664     -40992.766     -40993.226     -3.997695e-08   0.0034518022  -2.2417417e-08 -1.2987406e-08  5.4047334      4.6806413      308.65884      7808.3336    
      2174   0             -743.20583     -27328.664     -40992.766     -40993.226      2.2612782e-09  0.0034518073   1.1845832e-08  6.8115357e-09  5.4047334      4.6806413      308.65884      7808.3336    
Loop time of 0.0815266 on 6 procs for 74 steps with 280 atoms

590.6% CPU use with 1 MPI tasks x 6 OpenMP threads

Minimization stats:
  Stopping criterion = force tolerance
  Energy initial, next-to-last, final = 
     -665.658246692652  -743.205832228697  -743.205832228715
  Force two-norm initial, final = 123.39559 9.8330948e-11
  Force max component initial, final = 13.796875 1.7077895e-11
  Final line search alpha, max atom move = 1 1.7077895e-11
  Iterations, force evaluations = 74 134

MPI task timing breakdown:
Section |  min time  |  avg time  |  max time  |%varavg| %total
---------------------------------------------------------------
Pair    | 0.066139   | 0.066139   | 0.066139   |   0.0 | 81.13
Neigh   | 0          | 0          | 0          |   0.0 |  0.00
Comm    | 0.0061415  | 0.0061415  | 0.0061415  |   0.0 |  7.53
Output  | 0.0053253  | 0.0053253  | 0.0053253  |   0.0 |  6.53
Modify  | 0.0023249  | 0.0023249  | 0.0023249  |   0.0 |  2.85
Other   |            | 0.001596   |            |       |  1.96

Nlocal:            280 ave         280 max         280 min
Histogram: 1 0 0 0 0 0 0 0 0 0
Nghost:           3248 ave        3248 max        3248 min
Histogram: 1 0 0 0 0 0 0 0 0 0
Neighs:              0 ave           0 max           0 min
Histogram: 1 0 0 0 0 0 0 0 0 0
FullNghs:         8880 ave        8880 max        8880 min
Histogram: 1 0 0 0 0 0 0 0 0 0

Total # of neighbors = 8880
Ave neighs/atom = 31.714286
Neighbor list builds = 0
Dangerous builds = 0

# Obtain new stress tensor

variable tmp equal pxx
variable pxx1 equal ${tmp}
variable pxx1 equal -40992.765832705
variable tmp equal pyy
variable pyy1 equal ${tmp}
variable pyy1 equal -40993.2262877062
variable tmp equal pzz
variable pzz1 equal ${tmp}
variable pzz1 equal 2.26127822999058e-09
variable tmp equal pxy
variable pxy1 equal ${tmp}
variable pxy1 equal 0.00345180725516871
variable tmp equal pxz
variable pxz1 equal ${tmp}
variable pxz1 equal 1.18458321203568e-08
variable tmp equal pyz
variable pyz1 equal ${tmp}
variable pyz1 equal 6.81153571277625e-09

# Compute elastic constant from pressure tensor

variable C1neg equal ${d1}
variable C1neg equal -3706074.58280408
variable C2neg equal ${d2}
variable C2neg equal -3706117.57055742
variable C3neg equal ${d3}
variable C3neg equal -6930465.85775412
variable C4neg equal ${d4}
variable C4neg equal 6.40914231022009e-07
variable C5neg equal ${d5}
variable C5neg equal 1.25733477286015e-06
variable C6neg equal ${d6}
variable C6neg equal 0.961014888607903

# Reset box and simulation parameters

clear
  using 6 OpenMP thread(s) per MPI task
package omp 0
using multi-threaded neighbor list subroutines
box tilt large

The 'box' command has been removed and will be ignored

read_restart restart.equil
Reading restart file ...
  restart file = 7 Feb 2024, LAMMPS = 7 Feb 2024
  restoring atom style atomic from restart
  triclinic box = (0.31473059 0.27256462 -115.05892) to (5.7194694 4.9532059 193.59992) with tilt (-2.7023695 0 0)
WARNING: Triclinic box skew is large. LAMMPS will run inefficiently. (src/domain.cpp:219)
  1 by 1 by 1 MPI processor grid
  pair style tersoff stores no restart info
  280 atoms
  read_restart CPU = 0.000 seconds
include in.potential.mod
# NOTE: This script can be modified for different pair styles
# See in.elastic for more info.

# Choose potential
pair_style tersoff
pair_coeff * * WB.tersoff W B

# Setup neighbor style
neighbor 1.0 nsq
neigh_modify once no every 1 delay 0 check yes

# Setup minimization style
min_style	cg
min_modify dmax ${dmax} line quadratic
min_modify dmax 0.01 line quadratic

# Setup output
thermo 1
thermo_style custom step temp pe press pxx pyy pzz pxy pxz pyz lx ly lz vol
thermo_modify norm no

dump 2 all atom 10 dump.W2B5_elastic.lammpstrj

# Positive deformation

variable delta equal ${up}*${len0}
variable delta equal 1e-06*${len0}
variable delta equal 1e-06*5.40473882745895
variable deltaxy equal ${up}*xy
variable deltaxy equal 1e-06*xy
variable deltaxz equal ${up}*xz
variable deltaxz equal 1e-06*xz
variable deltayz equal ${up}*yz
variable deltayz equal 1e-06*yz
if "${dir} == 1" then    "change_box all x delta 0 ${delta} xy delta ${deltaxy} xz delta ${deltaxz} remap units box"
[...]
variable pzz1 equal -2.93513764262007e-08
variable tmp equal pxy
variable pxy1 equal ${tmp}
variable pxy1 equal 0.227698656617783
variable tmp equal pxz
variable pxz1 equal ${tmp}
variable pxz1 equal -1.24957815853355e-08
variable tmp equal pyz
variable pyz1 equal ${tmp}
variable pyz1 equal -7.13380190525423e-09

# Compute elastic constant from pressure tensor

variable C1neg equal ${d1}
variable C1neg equal -3706163.83347301
variable C2neg equal ${d2}
variable C2neg equal -3706161.97125547
variable C3neg equal ${d3}
variable C3neg equal -6930465.85775729
variable C4neg equal ${d4}
variable C4neg equal -7.53619530781039e-07
variable C5neg equal ${d5}
variable C5neg equal -1.17682659770908e-06
variable C6neg equal ${d6}
variable C6neg equal 23.3856998248693

# Reset box and simulation parameters

clear
  using 6 OpenMP thread(s) per MPI task
package omp 0
using multi-threaded neighbor list subroutines
box tilt large

The 'box' command has been removed and will be ignored

read_restart restart.equil
Reading restart file ...
  restart file = 7 Feb 2024, LAMMPS = 7 Feb 2024
  restoring atom style atomic from restart
  triclinic box = (0.31473059 0.27256462 -115.05892) to (5.7194694 4.9532059 193.59992) with tilt (-2.7023695 0 0)
WARNING: Triclinic box skew is large. LAMMPS will run inefficiently. (src/domain.cpp:219)
  1 by 1 by 1 MPI processor grid
  pair style tersoff stores no restart info
  280 atoms
  read_restart CPU = 0.000 seconds
include in.potential.mod
# NOTE: This script can be modified for different pair styles
# See in.elastic for more info.

# Choose potential
pair_style tersoff
pair_coeff * * WB.tersoff W B

# Setup neighbor style
neighbor 1.0 nsq
neigh_modify once no every 1 delay 0 check yes

# Setup minimization style
min_style	cg
min_modify dmax ${dmax} line quadratic
min_modify dmax 0.01 line quadratic

# Setup output
thermo 1
thermo_style custom step temp pe press pxx pyy pzz pxy pxz pyz lx ly lz vol
thermo_modify norm no

dump 2 all atom 10 dump.W2B5_elastic.lammpstrj

# Positive deformation

variable delta equal ${up}*${len0}
variable delta equal 1e-06*${len0}
variable delta equal 1e-06*4.6806412501908
variable deltaxy equal ${up}*xy
variable deltaxy equal 1e-06*xy
variable deltaxz equal ${up}*xz
variable deltaxz equal 1e-06*xz
variable deltayz equal ${up}*yz
variable deltayz equal 1e-06*yz
if "${dir} == 1" then    "change_box all x delta 0 ${delta} xy delta ${deltaxy} xz delta ${deltaxz} remap units box"
if "${dir} == 2" then    "change_box all y delta 0 ${delta} yz delta ${deltayz} remap units box"
if "${dir} == 3" then    "change_box all z delta 0 ${delta} remap units box"
if "${dir} == 4" then    "change_box all yz delta ${delta} remap units box"
if "${dir} == 5" then    "change_box all xz delta ${delta} remap units box"
if "${dir} == 6" then    "change_box all xy delta ${delta} remap units box"
change_box all xy delta ${delta} remap units box
change_box all xy delta 4.6806412501908e-06 remap units box
Changing box ...
WARNING: Triclinic box skew is large. LAMMPS will run inefficiently. (src/domain.cpp:219)
  triclinic box = (0.31473059 0.27256462 -115.05892) to (5.7194694 4.9532059 193.59992) with tilt (-2.7023648 0 0)

# Relax atoms positions

minimize ${etol} ${ftol} ${maxiter} ${maxeval}
minimize 0 ${ftol} ${maxiter} ${maxeval}
minimize 0 1e-10 ${maxiter} ${maxeval}
minimize 0 1e-10 100 ${maxeval}
minimize 0 1e-10 100 1000
Last active /omp style is pair_style tersoff/omp
Neighbor list info ...
  update: every = 1 steps, delay = 0 steps, check = yes
  max neighbors/atom: 2000, page size: 100000
  master list distance cutoff = 6.240189
  ghost atom cutoff = 6.240189
  1 neighbor lists, perpetual/occasional/extra = 1 0 0
  (1) pair tersoff/omp, perpetual
      attributes: full, newton on, omp
      pair build: full/nsq/omp
      stencil: none
      bin: none
Per MPI rank memory allocation (min/avg/max) = 8.744 | 8.744 | 8.744 Mbytes
   Step          Temp          PotEng         Press           Pxx            Pyy            Pzz            Pxy            Pxz            Pyz             Lx             Ly             Lz           Volume    
      2100   0             -665.65823      20480.744     -3931.3278     -3931.3575      69304.917     -0.26785098     0.12076213     0.61106057     5.4047388      4.6806413      308.65884      7808.3414    
      2101   0             -676.33061      15827.382     -9666.7667     -9666.8034      66815.715     -0.28365254     0.10727364     0.54280727     5.4047388      4.6806413      308.65884      7808.3414    
      2102   0             -686.2545       11340.589     -14901.964     -14902.005      63825.736     -0.29500909     0.094978524    0.48059259     5.4047388      4.6806413      308.65884      7808.3414    
      2103   0             -695.40319      7031.9765     -19632.22      -19632.265      60360.414     -0.30255276     0.083772577    0.42388936     5.4047388      4.6806413      308.65884      7808.3414    
      2104   0             -703.75628      2911.5956     -23857.492     -23857.539      56449.818     -0.30682604     0.073560067    0.37221302     5.4047388      4.6806413      308.65884      7808.3414    
      2105   0             -711.29961     -1012.0709     -27582.144     -27582.19       52128.121     -0.30829505     0.064252004    0.32511337     5.4047388      4.6806413      308.65884      7808.3414    
      2106   0             -718.02503     -4732.1032     -30814.655     -30814.701      47433.045     -0.30735944     0.055764728    0.28216708     5.4047388      4.6806413      308.65884      7808.3414    
      2107   0             -723.93021     -8243.1257     -33567.294     -33567.339      42405.256     -0.30435963     0.04801833     0.24296963     5.4047388      4.6806413      308.65884      7808.3414    
      2108   0             -729.01837     -11541.273     -35855.761     -35855.804      37087.747     -0.29958048     0.040934654    0.20712596     5.4047388      4.6806413      308.65884      7808.3414    
      2109   0             -733.29795     -14624.143     -37698.804     -37698.843      31525.217     -0.2932514      0.034434932    0.174237       5.4047388      4.6806413      308.65884      7808.3414    
      2110   0             -736.78224     -17490.739     -39117.816     -39117.852      25763.452     -0.28553966     0.028435056    0.14387751     5.4047388      4.6806413      308.65884      7808.3414    
      2111   0             -739.48906     -20141.4       -40136.437     -40136.47       19848.707     -0.27653016     0.022837126    0.1155521      5.4047388      4.6806413      308.65884      7808.3414    
      2112   0             -741.44029     -22577.725     -40780.139     -40780.168      13827.132     -0.26616965     0.017508969    0.088591805    5.4047388      4.6806413      308.65884      7808.3414    
      2113   0             -742.66149     -24802.482     -41075.821     -41075.845      7744.2201     -0.2540894      0.012222392    0.061842292    5.4047388      4.6806413      308.65884      7808.3414    
      2114   0             -743.18143     -26819.488     -41051.424     -41051.443      1644.4026     -0.23877424     0.0063684623   0.032222433    5.4047388      4.6806413      308.65884      7808.3414    
      2115   0             -743.20562     -27338.584     -40992.366     -40992.381     -31.005632     -0.22868388     0.0027872758   0.014102901    5.4047388      4.6806413      308.65884      7808.3414    
      2116   0             -743.20563     -27329.206     -40993.645     -40993.658     -0.31447016    -0.22448051     0.0013018129   0.0065870565   5.4047388      4.6806413      308.65884      7808.3414    
      2117   0             -743.20563     -27329.034     -40993.669     -40993.681      0.24823706    -0.22092874     4.6930315e-05  0.00023812577  5.4047388      4.6806413      308.65884      7808.3414    
      2118   0             -743.20563     -27329.114     -40993.658     -40993.669     -0.015441997   -0.2181236     -0.0009441259  -0.0047757662   5.4047388      4.6806413      308.65884      7808.3414    
      2119   0             -743.20563     -27329.109     -40993.657     -40993.672      0.0028356576  -0.22686643     0.002145313    0.010854231    5.4047388      4.6806413      308.65884      7808.3414    
      2120   0             -743.20563     -27329.11      -40993.66      -40993.668     -0.0029941346  -0.20925932    -0.0040763019  -0.020623316    5.4047388      4.6806413      308.65884      7808.3414    
      2121   0             -743.20563     -27329.108     -40993.658     -40993.671      0.0050247493  -0.22309404     0.00081225895  0.004109927    5.4047388      4.6806413      308.65884      7808.3414    
      2122   0             -743.20563     -27329.113     -40993.657     -40993.671     -0.011006068   -0.22686305     0.0021441994   0.010848057    5.4047388      4.6806413      308.65884      7808.3414    
      2123   0             -743.20563     -27329.106     -40993.659     -40993.671      0.011615187   -0.21998999    -0.00028445249 -0.0014393299   5.4047388      4.6806413      308.65884      7808.3414    
      2124   0             -743.20563     -27329.116     -40993.658     -40993.669     -0.022250717   -0.21911679    -0.00059306446 -0.0030003682   5.4047388      4.6806413      308.65884      7808.3414    
      2125   0             -743.20563     -27329.108     -40993.658     -40993.671      0.005070037   -0.22176213     0.00034159174  0.0017288492   5.4047388      4.6806413      308.65884      7808.3414    
      2126   0             -743.20563     -27329.11      -40993.658     -40993.67      -0.00015727968 -0.22079306    -5.3235481e-08 -3.6063372e-06  5.4047388      4.6806413      308.65884      7808.3414    
      2127   0             -743.20563     -27329.109     -40993.658     -40993.67       0.0004848755  -0.22079383    -1.2921506e-06 -2.2351522e-06  5.4047388      4.6806413      308.65884      7808.3414    
      2128   0             -743.20563     -27329.11      -40993.658     -40993.67      -2.0631894e-05 -0.22079455    -5.453874e-07  -9.6781409e-07  5.4047388      4.6806413      308.65884      7808.3414    
      2129   0             -743.20563     -27329.11      -40993.658     -40993.67       8.2385941e-07 -0.22079562     5.1063842e-07  9.2432111e-07  5.4047388      4.6806413      308.65884      7808.3414    
      2130   0             -743.20563     -27329.11      -40993.658     -40993.67      -2.8459714e-07 -0.2207948     -2.7519947e-07 -4.8987742e-07  5.4047388      4.6806413      308.65884      7808.3414    
      2131   0             -743.20563     -27329.11      -40993.658     -40993.67       1.9434864e-07 -0.22079501    -6.2303584e-08 -1.1815398e-07  5.4047388      4.6806413      308.65884      7808.3414    
      2132   0             -743.20563     -27329.11      -40993.658     -40993.67      -1.6586316e-06 -0.22079587     8.6651227e-07  1.5771837e-06  5.4047388      4.6806413      308.65884      7808.3414    
      2133   0             -743.20563     -27329.11      -40993.658     -40993.67       2.2613868e-06 -0.22079494    -1.4403934e-07 -2.6525598e-07  5.4047388      4.6806413      308.65884      7808.3414    
      2134   0             -743.20563     -27329.11      -40993.658     -40993.67      -1.4464527e-06 -0.22079458    -5.3684091e-07 -9.6679134e-07  5.4047388      4.6806413      308.65884      7808.3414    
      2135   0             -743.20563     -27329.11      -40993.658     -40993.67       2.76835e-08   -0.22079503     1.0322266e-09  2.3385472e-09  5.4047388      4.6806413      308.65884      7808.3414    
      2136   0             -743.20563     -27329.11      -40993.658     -40993.67      -3.9306254e-09 -0.22079503     3.9583264e-09  4.9836277e-09  5.4047388      4.6806413      308.65884      7808.3414    
      2137   0             -743.20563     -27329.11      -40993.658     -40993.67      -4.2688691e-09 -0.22079501    -5.6130964e-09 -6.7495661e-09  5.4047388      4.6806413      308.65884      7808.3414    
      2138   0             -743.20563     -27329.11      -40993.658     -40993.67       5.7361382e-09 -0.22079501    -8.5518697e-09 -1.0098992e-08  5.4047388      4.6806413      308.65884      7808.3414    
      2139   0             -743.20563     -27329.11      -40993.658     -40993.67      -2.2483227e-08 -0.22079507     2.9886718e-08  3.6435597e-08  5.4047388      4.6806413      308.65884      7808.3414    
      2140   0             -743.20563     -27329.11      -40993.658     -40993.67       2.7428394e-08 -0.22079503     6.714133e-09   5.7118099e-09  5.4047388      4.6806413      308.65884      7808.3414    
      2141   0             -743.20563     -27329.11      -40993.658     -40993.67      -2.3815535e-08 -0.22079502    -2.8348377e-09 -3.3448684e-09  5.4047388      4.6806413      308.65884      7808.3414    
Loop time of 0.0427056 on 6 procs for 41 steps with 280 atoms

685.4% CPU use with 1 MPI tasks x 6 OpenMP threads

Minimization stats:
  Stopping criterion = force tolerance
  Energy initial, next-to-last, final = 
     -665.658227534797  -743.205632444163  -743.205632444147
  Force two-norm initial, final = 123.39526 7.9647964e-11
  Force max component initial, final = 13.796839 1.9273472e-11
  Final line search alpha, max atom move = 1 1.9273472e-11
  Iterations, force evaluations = 41 68

MPI task timing breakdown:
Section |  min time  |  avg time  |  max time  |%varavg| %total
---------------------------------------------------------------
Pair    | 0.03515    | 0.03515    | 0.03515    |   0.0 | 82.31
Neigh   | 0          | 0          | 0          |   0.0 |  0.00
Comm    | 0.0029027  | 0.0029027  | 0.0029027  |   0.0 |  6.80
Output  | 0.0028957  | 0.0028957  | 0.0028957  |   0.0 |  6.78
Modify  | 0.00095809 | 0.00095809 | 0.00095809 |   0.0 |  2.24
Other   |            | 0.0007987  |            |       |  1.87

Nlocal:            280 ave         280 max         280 min
Histogram: 1 0 0 0 0 0 0 0 0 0
Nghost:           3248 ave        3248 max        3248 min
Histogram: 1 0 0 0 0 0 0 0 0 0
Neighs:              0 ave           0 max           0 min
Histogram: 1 0 0 0 0 0 0 0 0 0
FullNghs:         8880 ave        8880 max        8880 min
Histogram: 1 0 0 0 0 0 0 0 0 0

Total # of neighbors = 8880
Ave neighs/atom = 31.714286
Neighbor list builds = 0
Dangerous builds = 0

# Obtain new stress tensor

variable tmp equal pe
variable e1 equal ${tmp}
variable e1 equal -743.205632444147
variable tmp equal press
variable p1 equal ${tmp}
variable p1 equal -27329.1095447644
variable tmp equal pxx
variable pxx1 equal ${tmp}
variable pxx1 equal -40993.6583393975
variable tmp equal pyy
variable pyy1 equal ${tmp}
variable pyy1 equal -40993.6702948719
variable tmp equal pzz
variable pzz1 equal ${tmp}
variable pzz1 equal -2.38155347501023e-08
variable tmp equal pxy
variable pxy1 equal ${tmp}
variable pxy1 equal -0.220795019425056
variable tmp equal pxz
variable pxz1 equal ${tmp}
variable pxz1 equal -2.83483769713712e-09
variable tmp equal pyz
variable pyz1 equal ${tmp}
variable pyz1 equal -3.34486841369739e-09

# Compute elastic constant from pressure tensor

variable C1pos equal ${d1}
variable C1pos equal 3706163.83347333
variable C2pos equal ${d2}
variable C2pos equal 3706161.97127399
variable C3pos equal ${d3}
variable C3pos equal 6930465.85775673
variable C4pos equal ${d4}
variable C4pos equal 3.74726181625355e-07
variable C5pos equal ${d5}
variable C5pos equal 2.10732208889246e-07
variable C6pos equal ${d6}
variable C6pos equal 21.4636677794146

# Combine positive and negative

variable C1${dir} equal 0.5*(${C1neg}+${C1pos})
variable C16 equal 0.5*(${C1neg}+${C1pos})
variable C16 equal 0.5*(-3706163.83347301+${C1pos})
variable C16 equal 0.5*(-3706163.83347301+3706163.83347333)
variable C2${dir} equal 0.5*(${C2neg}+${C2pos})
variable C26 equal 0.5*(${C2neg}+${C2pos})
variable C26 equal 0.5*(-3706161.97125547+${C2pos})
variable C26 equal 0.5*(-3706161.97125547+3706161.97127399)
variable C3${dir} equal 0.5*(${C3neg}+${C3pos})
variable C36 equal 0.5*(${C3neg}+${C3pos})
variable C36 equal 0.5*(-6930465.85775729+${C3pos})
variable C36 equal 0.5*(-6930465.85775729+6930465.85775673)
variable C4${dir} equal 0.5*(${C4neg}+${C4pos})
variable C46 equal 0.5*(${C4neg}+${C4pos})
variable C46 equal 0.5*(-7.53619530781039e-07+${C4pos})
variable C46 equal 0.5*(-7.53619530781039e-07+3.74726181625355e-07)
variable C5${dir} equal 0.5*(${C5neg}+${C5pos})
variable C56 equal 0.5*(${C5neg}+${C5pos})
variable C56 equal 0.5*(-1.17682659770908e-06+${C5pos})
variable C56 equal 0.5*(-1.17682659770908e-06+2.10732208889246e-07)
variable C6${dir} equal 0.5*(${C6neg}+${C6pos})
variable C66 equal 0.5*(${C6neg}+${C6pos})
variable C66 equal 0.5*(23.3856998248693+${C6pos})
variable C66 equal 0.5*(23.3856998248693+21.4636677794146)

# Delete dir to make sure it is not reused

variable dir delete

# Output final values

variable C11all equal ${C11}
variable C11all equal 89.2501940999646
variable C22all equal ${C22}
variable C22all equal 89.2501686499454
variable C33all equal ${C33}
variable C33all equal -4.10247594118118e-07

variable C12all equal 0.5*(${C12}+${C21})
variable C12all equal 0.5*(44.4007922350429+${C21})
variable C12all equal 0.5*(44.4007922350429+44.4007958099246)
variable C13all equal 0.5*(${C13}+${C31})
variable C13all equal 0.5*(-4.09936577500775+${C31})
variable C13all equal 0.5*(-4.09936577500775+6.60307705402374e-07)
variable C23all equal 0.5*(${C23}+${C32})
variable C23all equal 0.5*(-4.09936693008058+${C32})
variable C23all equal 0.5*(-4.09936693008058+2.0097941160202e-06)

variable C44all equal ${C44}
variable C44all equal -8.89075379568545e-08
variable C55all equal ${C55}
variable C55all equal 1.08242105824888e-08
variable C66all equal ${C66}
variable C66all equal 22.4246838021419

variable C14all equal 0.5*(${C14}+${C41})
variable C14all equal 0.5*(-1.25030055642128e-07+${C41})
variable C14all equal 0.5*(-1.25030055642128e-07+3.36688059204894e-07)
variable C15all equal 0.5*(${C15}+${C51})
variable C15all equal 0.5*(-8.49831849336624e-08+${C51})
variable C15all equal 0.5*(-8.49831849336624e-08+5.73426286459716e-07)
variable C16all equal 0.5*(${C16}+${C61})
variable C16all equal 0.5*(1.59954652190208e-07+${C61})
variable C16all equal 0.5*(1.59954652190208e-07+-2.55606312754564e-06)

variable C24all equal 0.5*(${C24}+${C42})
variable C24all equal 0.5*(-1.59954652190208e-07+${C42})
variable C24all equal 0.5*(-1.59954652190208e-07+-1.37630272567261e-07)
variable C25all equal 0.5*(${C25}+${C52})
variable C25all equal 0.5*(1.49011611938477e-08+${C52})
variable C25all equal 0.5*(1.49011611938477e-08+-1.29101196898382e-07)
variable C26all equal 0.5*(${C26}+${C62})
variable C26all equal 0.5*(9.25990752875805e-06+${C62})
variable C26all equal 0.5*(9.25990752875805e-06+1.57274740610336e-05)

variable C34all equal 0.5*(${C34}+${C43})
variable C34all equal 0.5*(1.41514465212822e-06+${C43})
variable C34all equal 0.5*(1.41514465212822e-06+7.60767587969425e-08)
variable C35all equal 0.5*(${C35}+${C53})
variable C35all equal 0.5*(-2.20257788896561e-07+${C53})
variable C35all equal 0.5*(-2.20257788896561e-07+-3.6071856405987e-08)
variable C36all equal 0.5*(${C36}+${C63})
variable C36all equal 0.5*(-2.79862433671951e-07+${C63})
variable C36all equal 0.5*(-2.79862433671951e-07+3.14170201465291e-07)

variable C45all equal 0.5*(${C45}+${C54})
variable C45all equal 0.5*(-3.3181616115921e-08+${C54})
variable C45all equal 0.5*(-3.3181616115921e-08+1.05667693950759e-07)
variable C46all equal 0.5*(${C46}+${C64})
variable C46all equal 0.5*(-1.89446674577842e-07+${C64})
variable C46all equal 0.5*(-1.89446674577842e-07+-3.13837000276429e-08)
variable C56all equal 0.5*(${C56}+${C65})
variable C56all equal 0.5*(-4.83047194409917e-07+${C65})
variable C56all equal 0.5*(-4.83047194409917e-07+7.76779344735523e-08)

print "C11: ${C11}"
C11: 89.2501940999646
print "C12: ${C12}"
C12: 44.4007922350429
print "C44: ${C44}"
C44: -8.89075379568545e-08
Total wall time: 0:00:02
