LAMMPS (7 Feb 2024 - Development - patch_7Feb2024_update1-197-g554f53decb)
  using 6 OpenMP thread(s) per MPI task
package omp 0
using multi-threaded neighbor list subroutines
clear
  using 6 OpenMP thread(s) per MPI task
package omp 0
using multi-threaded neighbor list subroutines
units metal
dimension 3
boundary p p p

# Atom definition
atom_style atomic
atom_modify map array

read_data W2B5-P6_3-mmc.lmpstr
Reading data file ...
  triclinic box = (0 0 0) to (3.0171 2.6128852 15.7082) with tilt (-1.50855 0 0)
WARNING: Triclinic box skew is large. LAMMPS will run inefficiently. (src/domain.cpp:219)
  1 by 1 by 1 MPI processor grid
  reading atoms ...
  14 atoms
  read_data CPU = 0.001 seconds
replicate 2 2 2
Replication is creating a 2x2x2 = 8 times larger system...
  triclinic box = (0 0 0) to (6.0342 5.2257705 31.4164) with tilt (-3.0171 0 0)
WARNING: Triclinic box skew is large. LAMMPS will run inefficiently. (src/domain.cpp:219)
  1 by 1 by 1 MPI processor grid
  112 atoms
  replicate CPU = 0.001 seconds

# Define mass and interactions (from lit.)
pair_style tersoff
pair_coeff * * WB.tersoff W B

# Neighbors and thermo settings
neighbor 2.0 bin
neigh_modify delay 1 check yes

compute eng all pe/atom
compute eatoms all reduce sum c_eng

reset_timestep 0
# The vmax keyword can be used to limit the fractional change in the
# volume of the simulation box that can occur in one iteration of the
# minimizer. If the pressure is not settling down during the
# minimization this can be because the volume is fluctuating too much.
# The specified fraction must be greater than 0.0 and should be << 1.0.
fix box_relax all box/relax iso 0.0 vmax 0.001

# Set the thermo style to collect data every 10 time steps
thermo 10
thermo_style custom step pe vol press cella cellc c_eatoms

# Dump command to visualize in OVITO
dump 1 all atom 10 dump.W2B5_min.lammpstrj

# Minimisation algorithms:
#   cg = Conjugate Gradient
#   sd = Steepest Descent
# Typically, steepest descent will not converge as quickly as CG, but may
# be more robust in some situations.

# Run energy minimisation algorithms. Use multiple to guarantee a stable
# phase. Minimize args:
#   etol(stop tolerance: energy)
#   ftol(stop tolerance: force)
#   maxiter(max iters of minimiser)
#   maxeval(max # of F/E calcs)

min_style cg
minimize 1.0e-4 1.0e-6 1000 10000
Switching to 'neigh_modify every 1 delay 0 check yes' setting during minimization
Last active /omp style is pair_style tersoff/omp
Neighbor list info ...
  update: every = 1 steps, delay = 0 steps, check = yes
  max neighbors/atom: 2000, page size: 100000
  master list distance cutoff = 7.240189
  ghost atom cutoff = 7.240189
  binsize = 3.6200945, bins = 3 2 9
  1 neighbor lists, perpetual/occasional/extra = 1 0 0
  (1) pair tersoff/omp, perpetual
      attributes: full, newton on, omp
      pair build: full/bin/atomonly/omp
      stencil: full/bin/3d
      bin: standard
WARNING: Energy due to 1 extra global DOFs will be included in minimizer energies
 (src/min.cpp:219)
Per MPI rank memory allocation (min/avg/max) = 9.437 | 9.437 | 9.437 Mbytes
   Step         PotEng         Volume         Press          Cella          Cellc         c_eatoms   
         0   1429.1398      990.66416      5476518.5      6.0342         31.4164        1429.1398    
        10   1330.8145      1020.6823      5035519.4      6.094542       31.730564      1330.8145    
        20   1238.3801      1051.3007      4642903.6      6.154884       32.044728      1238.3801    
        30   1151.4753      1082.5255      4283777.2      6.215226       32.358892      1151.4753    
        40   1069.4         1114.3624      3979541.8      6.275568       32.673056      1069.4       
        50   991.68543      1146.8176      3698690.6      6.33591        32.98722       991.68543    
        60   917.92742      1179.8969      3457226.5      6.396252       33.301384      917.92742    
        70   847.44488      1213.6062      3243260        6.456594       33.615548      847.44488    
        80   780.15363      1247.9515      3035676        6.516936       33.929712      780.15363    
        90   716.06345      1282.9388      2835104.2      6.577278       34.243876      716.06345    
       100   655.1659       1318.574       2642038.1      6.63762        34.55804       655.1659     
       110   597.4364       1354.863       2456823.9      6.697962       34.872204      597.4364     
       120   542.83619      1391.8118      2279725.2      6.758304       35.186368      542.83619    
       130   490.65485      1429.4263      2234034.2      6.818646       35.500532      490.65485    
       140   436.44461      1467.7125      2287941.8      6.878988       35.814696      436.44461    
       150   381.05382      1506.6764      2250891.2      6.93933        36.12886       381.05382    
       160   326.75574      1546.3237      2122582.7      6.999672       36.443024      326.75574    
       170   275.75607      1586.6606      1917763.4      7.060014       36.757188      275.75607    
       180   229.83242      1627.6929      1663073.4      7.120356       37.071352      229.83242    
       190   190.05578      1669.4266      1391603.8      7.180698       37.385516      190.05578    
       200   156.63687      1711.8677      1137664.6      7.24104        37.69968       156.63687    
       210   128.94288      1755.022       928252.69      7.301382       38.013844      128.94288    
       220   105.74415      1798.8955      776156.55      7.361724       38.328008      105.74415    
       230   85.629552      1843.4942      676811.71      7.422066       38.642172      85.629552    
       240   67.447796      1888.8241      612166.04      7.482408       38.956336      67.447796    
       250   50.620334      1934.8909      566703.52      7.54275        39.2705        50.620334    
       260   34.652822      1981.7008      523493.49      7.603092       39.584664      34.652822    
       270   19.968682      2029.2596      463150.11      7.663434       39.898828      19.968682    
       280   7.1059587      2077.5733      387908.71      7.723776       40.212992      7.1059587    
       290  -3.4916011      2126.6479      303140.23      7.784118       40.527156     -3.4916011    
       300  -11.568126      2176.4892      216554.11      7.84446        40.84132      -11.568126    
       310  -17.12346       2227.1032      136942.83      7.904802       41.155484     -17.12346     
       320  -20.373425      2278.4959      65999.966      7.965144       41.469648     -20.373425    
       330  -21.6431        2330.6732      11989.579      8.025486       41.783812     -21.6431      
       340  -23.749302      2372.9839      2595.3758      8.0737596      42.035143     -23.749302    
       350  -25.175103      2426.5885      2969.1532      8.1341016      42.349307     -25.175103    
       360  -25.883501      2480.9943      11756.912      8.1944436      42.663471     -25.883501    
       370  -26.766355      2536.2073      25780.657      8.2547856      42.977635     -26.766355    
       380  -27.831632      2592.2334      12996.761      8.3151276      43.291799     -27.831632    
       390  -30.199453      2649.0786      1742.0504      8.3754696      43.605963     -30.199453    
       400  -34.30208       2706.7489      1986.0007      8.4358116      43.920127     -34.30208     
       410  -37.686879      2765.2501      2110.5934      8.4961536      44.234291     -37.686879    
       420  -40.707302      2824.5882      1978.6659      8.5564956      44.548455     -40.707302    
       430  -44.062759      2884.7692      966.32361      8.6168376      44.862619     -44.062759    
       440  -47.108277      2945.799       1027.9792      8.6771796      45.176783     -47.108277    
       450  -50.579377      2933.5248     -1865.8342      8.6651112      45.11395      -50.579377    
       460  -51.551236      2933.5248     -2196.3874      8.6651112      45.11395      -51.551236    
       470  -52.556873      2933.5248     -3281.9961      8.6651112      45.11395      -52.556873    
       480  -54.163304      2921.2848      1636.4639      8.6530428      45.051118     -54.163304    
       490  -55.5636        2921.2848     -2424.264       8.6530428      45.051118     -55.5636      
       500  -58.321454      2909.0789     -5268.4943      8.6409744      44.988285     -58.321454    
       510  -59.302032      2896.9071     -2183.5712      8.628906       44.925452     -59.302032    
       520  -62.177073      2872.6653     -423.54312      8.6047692      44.799786     -62.177073    
       530  -64.488681      2860.5953     -3212.256       8.5927008      44.736954     -64.488681    
       540  -69.109604      2836.5568      174.58288      8.568564       44.611288     -69.109604    
       550  -70.421075      2836.5568     -925.28863      8.568564       44.611288     -70.421075    
       560  -71.085477      2836.5568     -1748.9277      8.568564       44.611288     -71.085477    
       570  -71.830306      2824.5882      971.85097      8.5564956      44.548455     -71.830306    
       580  -72.257441      2824.5882      56.78488       8.5564956      44.548455     -72.257441    
       583  -72.786944      2818.6166      478.59112      8.5504614      44.517039     -72.786944    
Loop time of 0.429818 on 6 procs for 583 steps with 112 atoms

596.2% CPU use with 1 MPI tasks x 6 OpenMP threads

Minimization stats:
  Stopping criterion = energy tolerance
  Energy initial, next-to-last, final = 
      1429.13975316448  -72.7798485167939  -72.7869436255616
  Force two-norm initial, final = 10159.538 5.9197188
  Force max component initial, final = 10158.788 1.7825499
  Final line search alpha, max atom move = 0.00015416505 0.00027480688
  Iterations, force evaluations = 583 583

MPI task timing breakdown:
Section |  min time  |  avg time  |  max time  |%varavg| %total
---------------------------------------------------------------
Pair    | 0.39237    | 0.39237    | 0.39237    |   0.0 | 91.29
Neigh   | 0.0013594  | 0.0013594  | 0.0013594  |   0.0 |  0.32
Comm    | 0.0052228  | 0.0052228  | 0.0052228  |   0.0 |  1.22
Output  | 0.011181   | 0.011181   | 0.011181   |   0.0 |  2.60
Modify  | 0.0045906  | 0.0045906  | 0.0045906  |   0.0 |  1.07
Other   |            | 0.0151     |            |       |  3.51

Nlocal:            112 ave         112 max         112 min
Histogram: 1 0 0 0 0 0 0 0 0 0
Nghost:           1080 ave        1080 max        1080 min
Histogram: 1 0 0 0 0 0 0 0 0 0
Neighs:              0 ave           0 max           0 min
Histogram: 1 0 0 0 0 0 0 0 0 0
FullNghs:         7104 ave        7104 max        7104 min
Histogram: 1 0 0 0 0 0 0 0 0 0

Total # of neighbors = 7104
Ave neighs/atom = 63.428571
Neighbor list builds = 14
Dangerous builds = 0
min_style sd
minimize 1.0e-4 1.0e-6 1000 10000
Switching to 'neigh_modify every 1 delay 0 check yes' setting during minimization
Last active /omp style is pair_style tersoff/omp
WARNING: Energy due to 1 extra global DOFs will be included in minimizer energies
 (src/min.cpp:219)
Per MPI rank memory allocation (min/avg/max) = 10.55 | 10.55 | 10.55 Mbytes
   Step         PotEng         Volume         Press          Cella          Cellc         c_eatoms   
       583  -72.786944      2818.6166      478.59112      8.5504614      44.517039     -72.786944    
       584  -72.793408      2825.7205     -2275.823       8.5576388      44.554407     -72.793408    
Loop time of 0.00122025 on 6 procs for 1 steps with 112 atoms

99.2% CPU use with 1 MPI tasks x 6 OpenMP threads

Minimization stats:
  Stopping criterion = energy tolerance
  Energy initial, next-to-last, final = 
     -72.7869436255618  -72.7869436255618   -72.793407981585
  Force two-norm initial, final = 6.1843045 13.20537
  Force max component initial, final = 2.5258731 12.031345
  Final line search alpha, max atom move = 0.0003959027 0.0047632421
  Iterations, force evaluations = 1 2

MPI task timing breakdown:
Section |  min time  |  avg time  |  max time  |%varavg| %total
---------------------------------------------------------------
Pair    | 0.00091908 | 0.00091908 | 0.00091908 |   0.0 | 75.32
Neigh   | 0          | 0          | 0          |   0.0 |  0.00
Comm    | 3.013e-05  | 3.013e-05  | 3.013e-05  |   0.0 |  2.47
Output  | 0          | 0          | 0          |   0.0 |  0.00
Modify  | 4.881e-05  | 4.881e-05  | 4.881e-05  |   0.0 |  4.00
Other   |            | 0.0002222  |            |       | 18.21

Nlocal:            112 ave         112 max         112 min
Histogram: 1 0 0 0 0 0 0 0 0 0
Nghost:           1080 ave        1080 max        1080 min
Histogram: 1 0 0 0 0 0 0 0 0 0
Neighs:              0 ave           0 max           0 min
Histogram: 1 0 0 0 0 0 0 0 0 0
FullNghs:         6912 ave        6912 max        6912 min
Histogram: 1 0 0 0 0 0 0 0 0 0

Total # of neighbors = 6912
Ave neighs/atom = 61.714286
Neighbor list builds = 0
Dangerous builds = 0

# min_style cg
# minimize 1.0e-4 1.0e-6 1000 10000
# min_style cg
# minimize 1.0e-4 1.0e-6 1000 10000

unfix box_relax

# Divide sim box by periodic multiple
variable        a equal cella/2
variable        b equal cellb/2
variable        c equal cellc/2

variable        natoms equal "count(all)"
variable        teng equal "c_eatoms"
variable        ecoh equal "v_teng/v_natoms"

print "LA: ${a}"
LA: 4.27881941305944
print "LB: ${b}"
LB: 4.27881941305932
print "LC: ${c}"
LC: 22.2772036406547
print "COHENERGY: ${ecoh}"
COHENERGY: -0.649941142692722

# ELASTIC CONSTANT

include in.init.mod
# NOTE: This script can be modified for different atomic structures,
# units, etc. See in.elastic for more info.

# Define the finite deformation size. Try several values of this
# variable to verify that results do not depend on it.
variable up equal 1.0e-6

# Define the amount of random jiggle for atoms
# This prevents atoms from staying on saddle points
variable atomjiggle equal 1.0e-5

# Uncomment one of these blocks, depending on what units
# you are using in LAMMPS and for output

# metal units, elastic constants in eV/A^3
#units		metal
#variable cfac equal 6.2414e-7
#variable cunits string eV/A^3

# metal units, elastic constants in GPa
# units	metal already defined earlier
variable cfac equal 1.0e-4
variable cunits string GPa

# real units, elastic constants in GPa
#units		real
#variable cfac equal 1.01325e-4
#variable cunits string GPa

# Define minimization parameters
variable etol equal 0.0
variable ftol equal 1.0e-10
variable maxiter equal 100
variable maxeval equal 1000
variable dmax equal 1.0e-2

# boundary p p p already defined earlier

# read_data WB2_P6.lmp defined earlier
include in.potential.mod
# NOTE: This script can be modified for different pair styles
# See in.elastic for more info.

# Choose potential
pair_style tersoff
pair_coeff * * WB.tersoff W B

# Setup neighbor style
neighbor 1.0 nsq
neigh_modify once no every 1 delay 0 check yes

# Setup minimization style
min_style	cg
min_modify dmax ${dmax} line quadratic
min_modify dmax 0.01 line quadratic

# Setup output
thermo 1
thermo_style custom step temp pe press pxx pyy pzz pxy pxz pyz lx ly lz vol
thermo_modify norm no

dump 2 all atom 10 dump.W2B5_elastic.lammpstrj

# Compute initial state
fix deform_relax all box/relax aniso 1.0
minimize ${etol} ${ftol} ${maxiter} ${maxeval}
minimize 0 ${ftol} ${maxiter} ${maxeval}
minimize 0 1e-10 ${maxiter} ${maxeval}
minimize 0 1e-10 100 ${maxeval}
minimize 0 1e-10 100 1000
Last active /omp style is pair_style tersoff/omp
Neighbor list info ...
  update: every = 1 steps, delay = 0 steps, check = yes
  max neighbors/atom: 2000, page size: 100000
  master list distance cutoff = 6.240189
  ghost atom cutoff = 6.240189
  1 neighbor lists, perpetual/occasional/extra = 1 0 0
  (1) pair tersoff/omp, perpetual
      attributes: full, newton on, omp
      pair build: full/nsq/omp
      stencil: none
      bin: none
WARNING: Energy due to 3 extra global DOFs will be included in minimizer energies
 (src/min.cpp:219)
Per MPI rank memory allocation (min/avg/max) = 10.53 | 10.53 | 10.53 Mbytes
   Step          Temp          PotEng         Press           Pxx            Pyy            Pzz            Pxy            Pxz            Pyz             Lx             Ly             Lz           Volume    
       584   0             -72.793408     -2275.823      -39526.815     -39527.781      72227.127     -0.83714373     3.0574115e-10 -2.1745073e-10  8.5576388      7.4111326      44.554407      2825.7205    
       585   0             -72.813802     -2338.2221     -39594.072     -39595.039      72174.445     -0.83825465     2.5572243e-10 -9.9264225e-11  8.5571705      7.410727       44.558863      2825.6938    
       586   0             -72.834218     -2400.5682     -39661.296     -39662.264      72121.855     -0.83936679     3.1510306e-10 -1.5091614e-10  8.5567009      7.4103204      44.563318      2825.6662    
       587   0             -72.854657     -2462.8604     -39728.486     -39729.454      72069.359     -0.84048018     3.1471672e-10  3.0321829e-11  8.5562302      7.4099127      44.567774      2825.6378    
       588   0             -72.875119     -2525.0974     -39795.641     -39796.609      72016.958     -0.84159482     3.7110124e-10  1.4204793e-10  8.5557582      7.4095039      44.572229      2825.6085    
       589   0             -72.895603     -2587.2781     -39862.76      -39863.728      71964.654     -0.84271073     2.859796e-10  -3.318779e-12   8.555285       7.4090941      44.576684      2825.5784    
       590   0             -72.916111     -2649.4015     -39929.841     -39930.81       71912.446     -0.84382793     1.5390097e-10 -9.8269987e-11  8.5548106      7.4086832      44.58114       2825.5474    
       591   0             -72.936642     -2711.4664     -39996.884     -39997.853      71860.338     -0.84494642     1.2277198e-10 -1.4567934e-12  8.5543349      7.4082713      44.585595      2825.5155    
       592   0             -72.957195     -2773.4717     -40063.887     -40064.857      71808.329     -0.84606623     1.1220685e-10 -1.9117758e-10  8.5538581      7.4078583      44.590051      2825.4829    
       593   0             -72.977772     -2835.4163     -40130.85      -40131.821      71756.422     -0.84718737     2.7323239e-10 -1.4010727e-10  8.55338        7.4074443      44.594506      2825.4493    
       594   0             -72.998372     -2897.2992     -40197.772     -40198.743      71704.617     -0.84830986     9.2360647e-11 -2.2847584e-10  8.5529007      7.4070292      44.598962      2825.4149    
       595   0             -73.018996     -2959.1191     -40264.651     -40265.622      71652.916     -0.8494337      1.3109312e-10  2.8437857e-11  8.5524202      7.4066131      44.603417      2825.3797    
       596   0             -73.039643     -3020.875      -40331.486     -40332.458      71601.319     -0.85055891    -2.9413081e-11 -1.8881821e-10  8.5519385      7.4061959      44.607873      2825.3436    
       597   0             -73.060314     -3082.5658     -40398.277     -40399.249      71549.829     -0.85168551    -9.5228802e-11 -6.7271253e-11  8.5514556      7.4057776      44.612328      2825.3067    
       598   0             -73.081009     -3144.1904     -40465.022     -40465.994      71498.445     -0.85281352    -2.3693602e-10 -1.3850288e-10  8.5509714      7.4053583      44.616783      2825.2689    
       599   0             -73.101727     -3205.7477     -40531.721     -40532.693      71447.171     -0.85394294    -2.2886854e-10 -7.7551341e-11  8.550486       7.4049379      44.621239      2825.2302    
       600   0             -73.122469     -3267.2366     -40598.371     -40599.344      71396.006     -0.85507379    -1.6381317e-10 -2.1232869e-10  8.5499994      7.4045165      44.625694      2825.1907    
       601   0             -73.143235     -3328.656      -40664.973     -40665.946      71344.951     -0.85620609    -1.7221308e-10 -1.7050129e-10  8.5495115      7.404094       44.63015       2825.1504    
       602   0             -73.164026     -3390.0049     -40731.525     -40732.499      71294.009     -0.85733985    -2.1123297e-10 -7.587434e-11   8.5490224      7.4036704      44.634605      2825.1092    
       603   0             -73.18484      -3451.2822     -40798.026     -40799.001      71243.18      -0.85847509    -2.7835173e-10 -2.5425622e-10  8.5485321      7.4032458      44.639061      2825.0671    
       604   0             -73.205679     -3512.4867     -40864.476     -40865.45       71192.466     -0.85961182    -3.3599244e-10 -3.0134208e-10  8.5480406      7.4028201      44.643516      2825.0241    
       605   0             -73.226542     -3573.6175     -40930.872     -40931.847      71141.867     -0.86075006    -3.0256868e-10  9.0159244e-11  8.5475478      7.4023933      44.647972      2824.9803    
       606   0             -73.247429     -3634.6734     -40997.215     -40998.19       71091.385     -0.86188982    -3.0651873e-10 -1.133246e-10   8.5470538      7.4019655      44.652427      2824.9357    
       607   0             -73.268341     -3695.6534     -41063.503     -41064.478      71041.021     -0.86303111    -2.3615313e-10 -9.2216449e-11  8.5465586      7.4015366      44.656882      2824.8902    
       608   0             -73.289277     -3756.5564     -41129.735     -41130.71       70990.776     -0.86417395    -1.9578213e-10 -1.2336396e-10  8.5460622      7.4011067      44.661338      2824.8438    
       609   0             -73.310238     -3817.3813     -41195.909     -41196.886      70940.651     -0.86531836    -2.3458277e-10  1.3832532e-10  8.5455645      7.4006757      44.665793      2824.7966    
       610   0             -73.331224     -3878.1272     -41262.026     -41263.003      70890.648     -0.86646435    -3.7003352e-11 -2.0870174e-10  8.5450656      7.4002436      44.670249      2824.7485    
       611   0             -73.352235     -3938.7929     -41328.084     -41329.061      70840.767     -0.86761193    -3.1616925e-10 -7.3016175e-11  8.5445654      7.3998104      44.674704      2824.6995    
       612   0             -73.373271     -3999.3774     -41394.082     -41395.059      70791.009     -0.86876112    -2.414748e-10  -1.8907713e-10  8.544064       7.3993762      44.67916       2824.6497    
       613   0             -73.394331     -4059.8797     -41460.019     -41460.997      70741.377     -0.86991193    -1.4569512e-10 -6.8232722e-11  8.5435614      7.3989409      44.683615      2824.599     
       614   0             -73.415417     -4120.2987     -41525.894     -41526.872      70691.87      -0.87106439    -2.040013e-10   9.199935e-11   8.5430576      7.3985046      44.688071      2824.5475    
       615   0             -73.436528     -4180.6334     -41591.706     -41592.684      70642.49      -0.8722185     -1.1349579e-10  3.0071365e-11  8.5425525      7.3980672      44.692526      2824.4951    
       616   0             -73.457664     -4240.8827     -41657.454     -41658.433      70593.239     -0.87337427    -1.6738336e-10 -1.5157592e-10  8.5420462      7.3976287      44.696981      2824.4418    
       617   0             -73.478826     -4301.0457     -41723.137     -41724.116      70544.117     -0.87453173    -6.4726744e-11 -1.7416076e-10  8.5415386      7.3971891      44.701437      2824.3877    
       618   0             -73.500013     -4361.1213     -41788.755     -41789.734      70495.125     -0.87569088    -2.2972458e-10 -5.8185925e-11  8.5410298      7.3967485      44.705892      2824.3327    
       619   0             -73.521226     -4421.1085     -41854.305     -41855.285      70446.264     -0.87685174    -2.1501113e-10 -3.1593118e-11  8.5405198      7.3963068      44.710348      2824.2769    
       620   0             -73.542464     -4481.0063     -41919.787     -41920.767      70397.536     -0.87801433    -2.0853609e-10 -1.5409532e-10  8.5400086      7.395864       44.714803      2824.2201    
       621   0             -73.563728     -4540.8136     -41985.201     -41986.181      70348.941     -0.87917866    -2.0753653e-10 -2.4725194e-10  8.5394961      7.3954202      44.719259      2824.1626    
       622   0             -73.585017     -4600.5296     -42050.545     -42051.525      70300.481     -0.88034474    -7.1677384e-11 -2.1680362e-10  8.5389823      7.3949752      44.723714      2824.1041    
       623   0             -73.606333     -4660.1531     -42115.818     -42116.798      70252.157     -0.8815126      6.2116718e-11 -3.0417075e-10  8.5384674      7.3945293      44.728169      2824.0448    
       624   0             -73.627674     -4719.6833     -42181.019     -42182          70203.969     -0.88268223     6.2761701e-11 -3.934392e-10   8.5379512      7.3940822      44.732625      2823.9846    
       625   0             -73.649042     -4779.119      -42246.147     -42247.129      70155.919     -0.88385366     2.6957506e-11 -3.5558318e-10  8.5374337      7.3936341      44.73708       2823.9236    
       626   0             -73.670435     -4838.4594     -42311.202     -42312.184      70108.007     -0.8850269      2.0855863e-11 -5.1434356e-10  8.5369151      7.3931849      44.741536      2823.8616    
       627   0             -73.691855     -4897.7034     -42376.182     -42377.164      70060.236     -0.88620196    -6.5362289e-11 -4.4192183e-10  8.5363951      7.3927346      44.745991      2823.7989    
       628   0             -73.713301     -4956.8502     -42441.087     -42442.069      70012.605     -0.88737886    -2.9370779e-12 -5.5913144e-10  8.535874       7.3922833      44.750447      2823.7352    
       629   0             -73.734773     -5015.8986     -42505.915     -42506.897      69965.116     -0.88855761     9.3079148e-11 -2.9938405e-10  8.5353516      7.3918309      44.754902      2823.6707    
       630   0             -73.756272     -5074.8478     -42570.665     -42571.648      69917.77      -0.88973823     6.2917779e-12 -5.2642259e-10  8.534828       7.3913774      44.759358      2823.6053    
       631   0             -73.777797     -5133.6969     -42635.337     -42636.321      69870.567     -0.89092073    -1.1311685e-10 -4.7410722e-10  8.5343031      7.3909228      44.763813      2823.5391    
       632   0             -73.799348     -5192.4448     -42699.93      -42700.914      69823.509     -0.89210512     1.1026094e-10 -5.016099e-10   8.533777       7.3904672      44.768268      2823.472     
       633   0             -73.820926     -5251.0906     -42764.443     -42765.427      69776.597     -0.89329142     7.5136588e-11 -4.6197071e-10  8.5332497      7.3900105      44.772724      2823.404     
       634   0             -73.842531     -5309.6335     -42828.874     -42829.858      69729.832     -0.89447963     1.0168809e-10 -5.1158861e-10  8.5327211      7.3895527      44.777179      2823.3352    
       635   0             -73.864163     -5368.0724     -42893.223     -42894.208      69683.214     -0.89566978     7.6969364e-11 -5.378267e-10   8.5321913      7.3890939      44.781635      2823.2654    
       636   0             -73.885821     -5426.4065     -42957.49      -42958.474      69636.745     -0.89686187     8.5573533e-11 -2.6793955e-10  8.5316602      7.388634       44.78609       2823.1949    
       637   0             -73.907507     -5484.6348     -43021.672     -43022.657      69590.425     -0.89805592     1.4664944e-10 -5.072716e-10   8.531128       7.388173       44.790546      2823.1234    
       638   0             -73.929219     -5542.7564     -43085.769     -43086.755      69544.255     -0.89925195     1.6495728e-10 -4.0986497e-10  8.5305944      7.3877109      44.795001      2823.0511    
       639   0             -73.950958     -5600.7705     -43149.781     -43150.767      69498.237     -0.90044996     1.0551309e-10 -5.2346782e-10  8.5300597      7.3872478      44.799457      2822.9779    
       640   0             -73.972725     -5658.676      -43213.706     -43214.693      69452.371     -0.90164996     1.4490438e-10 -4.0075746e-10  8.5295237      7.3867836      44.803912      2822.9039    
       641   0             -73.994518     -5716.4722     -43277.544     -43278.531      69406.658     -0.90285198    -6.9598798e-11 -5.7893188e-10  8.5289865      7.3863184      44.808367      2822.829     
       642   0             -74.016339     -5774.1582     -43341.293     -43342.28       69361.099     -0.90405602     3.1604264e-11 -4.5019879e-10  8.528448       7.385852       44.812823      2822.7532    
       643   0             -74.038187     -5831.7331     -43404.953     -43405.94       69315.695     -0.90526209    -6.5112577e-11 -3.6547644e-10  8.5279083      7.3853846      44.817278      2822.6766    
       644   0             -74.060063     -5889.1959     -43468.523     -43469.511      69270.446     -0.90647021    -5.9331388e-11 -5.7484341e-10  8.5273674      7.3849162      44.821734      2822.5991    
       645   0             -74.081966     -5946.546      -43532.002     -43532.99       69225.354     -0.90768039     1.4928922e-10 -4.6180018e-10  8.5268252      7.3844466      44.826189      2822.5207    
       646   0             -74.103896     -6003.7823     -43595.389     -43596.377      69180.42      -0.90889265     3.5260106e-11 -7.5923603e-10  8.5262818      7.383976       44.830645      2822.4415    
       647   0             -74.125854     -6060.904      -43658.684     -43659.672      69135.643     -0.91010698     1.0351937e-10 -6.7245343e-10  8.5257372      7.3835043      44.8351        2822.3614    
       648   0             -74.14784      -6117.9104     -43721.884     -43722.873      69091.026     -0.91132341     8.2608505e-11 -4.1844603e-10  8.5251913      7.3830316      44.839555      2822.2804    
       649   0             -74.169854     -6174.8005     -43784.99      -43785.979      69046.568     -0.91254195     2.3627299e-10 -3.6456929e-10  8.5246442      7.3825578      44.844011      2822.1985    
       650   0             -74.191895     -6231.5736     -43848.001     -43848.99       69002.271     -0.91376261     3.8231497e-10 -5.193417e-10   8.5240959      7.3820829      44.848466      2822.1159    
       651   0             -74.213964     -6288.2288     -43910.916     -43911.905      68958.135     -0.91498539     4.1608269e-10 -5.7575464e-10  8.5235463      7.3816069      44.852922      2822.0323    
       652   0             -74.23606      -6344.7653     -43973.734     -43974.724      68914.162     -0.91621032     2.9239086e-10 -2.9421686e-10  8.5229955      7.3811299      44.857377      2821.9479    
       653   0             -74.258185     -6401.1823     -44036.454     -44037.444      68870.351     -0.9174374      4.1402361e-10 -9.312697e-11   8.5224435      7.3806518      44.861833      2821.8626    
       654   0             -74.280338     -6457.479      -44099.076     -44100.066      68826.705     -0.91866664     3.3439446e-10 -4.3315725e-10  8.5218902      7.3801727      44.866288      2821.7764    
       655   0             -74.302519     -6513.6546     -44161.598     -44162.588      68783.222     -0.91989806     4.5303685e-10 -2.9938939e-10  8.5213357      7.3796925      44.870744      2821.6894    
       656   0             -74.324728     -6569.7084     -44224.02      -44225.01       68739.905     -0.92113166     3.5316208e-10 -4.2971289e-10  8.52078        7.3792112      44.875199      2821.6015    
       657   0             -74.346965     -6625.6395     -44286.341     -44287.331      68696.753     -0.92236746     4.8762177e-10 -4.8057078e-10  8.5202231      7.3787289      44.879654      2821.5128    
       658   0             -74.36923      -6681.4472     -44348.56      -44349.55       68653.768     -0.92360547     2.4465496e-10 -4.646553e-10   8.5196649      7.3782455      44.88411       2821.4232    
       659   0             -74.391524     -6737.1307     -44410.676     -44411.667      68610.951     -0.92484569     2.5889672e-10 -5.4316011e-10  8.5191055      7.377761       44.888565      2821.3327    
       660   0             -74.413846     -6792.6893     -44472.689     -44473.68       68568.301     -0.92608814     1.6579703e-10 -5.1181854e-10  8.5185449      7.3772755      44.893021      2821.2414    
       661   0             -74.436196     -6848.1223     -44534.598     -44535.589      68525.82      -0.92733282     5.6973809e-11 -4.4630124e-10  8.517983       7.3767889      44.897476      2821.1492    
       662   0             -74.458575     -6903.4288     -44596.401     -44597.393      68483.508     -0.92857975    -1.3381124e-11 -4.5817395e-10  8.51742        7.3763013      44.901932      2821.0562    
       663   0             -74.480982     -6958.6082     -44658.099     -44659.092      68441.366     -0.92982894     6.9853725e-13 -5.2298272e-10  8.5168557      7.3758126      44.906387      2820.9623    
       664   0             -74.503418     -7013.6597     -44719.691     -44720.683      68399.395     -0.93108039     4.2142227e-11 -3.3478892e-10  8.5162902      7.3753228      44.910843      2820.8675    
       665   0             -74.525882     -7068.5827     -44781.175     -44782.168      68357.595     -0.93233412     2.1023548e-11 -6.2081196e-10  8.5157234      7.374832       44.915298      2820.7719    
       666   0             -74.548375     -7123.3764     -44842.552     -44843.544      68315.967     -0.93359013    -1.4630375e-11 -5.8471051e-10  8.5151555      7.3743401      44.919753      2820.6754    
       667   0             -74.570897     -7178.0402     -44903.819     -44904.812      68274.511     -0.93484843     9.6190547e-11 -7.0489152e-10  8.5145863      7.3738472      44.924209      2820.5781    
       668   0             -74.593448     -7232.5732     -44964.977     -44965.97       68233.228     -0.93610904    -1.2173773e-11 -3.619101e-10   8.5140159      7.3733532      44.928664      2820.4799    
       669   0             -74.616027     -7286.975      -45026.025     -45027.018      68192.118     -0.93737195     2.8042839e-11 -4.9983401e-10  8.5134443      7.3728582      44.93312       2820.3808    
       670   0             -74.638635     -7341.2447     -45086.962     -45087.955      68151.183     -0.93863719    -5.1541641e-11 -5.2348355e-10  8.5128715      7.3723621      44.937575      2820.2809    
       671   0             -74.661272     -7395.3818     -45147.787     -45148.781      68110.422     -0.93990475    -6.433154e-11  -5.1401371e-10  8.5122974      7.3718649      44.942031      2820.1801    
       672   0             -74.683938     -7449.3855     -45208.499     -45209.494      68069.837     -0.94117465    -8.3356977e-11 -7.0167339e-10  8.5117222      7.3713667      44.946486      2820.0785    
       673   0             -74.706633     -7503.2552     -45269.099     -45270.093      68029.427     -0.94244689    -1.8583548e-10 -6.6950566e-10  8.5111457      7.3708675      44.950942      2819.9761    
       674   0             -74.729357     -7556.9903     -45329.585     -45330.579      67989.193     -0.94372149    -1.6706518e-10 -5.7108216e-10  8.510568       7.3703672      44.955397      2819.8727    
       675   0             -74.75211      -7610.5902     -45389.956     -45390.951      67949.136     -0.94499844    -5.5502517e-11 -6.4023351e-10  8.5099891      7.3698658      44.959852      2819.7686    
       676   0             -74.774892     -7664.0542     -45450.212     -45451.207      67909.257     -0.94627776    -4.1687087e-11 -8.0223493e-10  8.509409       7.3693634      44.964308      2819.6635    
       677   0             -74.797703     -7717.3817     -45510.352     -45511.348      67869.555     -0.94755946    -1.6483144e-10 -6.2023946e-10  8.5088277      7.36886        44.968763      2819.5576    
       678   0             -74.820543     -7770.5721     -45570.376     -45571.372      67830.031     -0.94884354    -5.2202493e-11 -5.8397868e-10  8.5082452      7.3683555      44.973219      2819.4509    
       679   0             -74.843413     -7823.6248     -45630.282     -45631.278      67790.686     -0.95013       -1.2303287e-10 -5.5112621e-10  8.5076615      7.36785        44.977674      2819.3433    
       680   0             -74.866312     -7876.5392     -45690.071     -45691.067      67751.52      -0.95141886     3.5036989e-12 -3.7607288e-10  8.5070765      7.3673434      44.98213       2819.2349    
       681   0             -74.88924      -7929.3148     -45749.741     -45750.737      67712.533     -0.95271012     2.1386799e-11 -3.5308479e-10  8.5064904      7.3668358      44.986585      2819.1256    
       682   0             -74.912197     -7981.9509     -45809.292     -45810.288      67673.727     -0.95400379     1.1445584e-10 -5.3504975e-10  8.5059031      7.3663271      44.99104       2819.0155    
       683   0             -74.935184     -8034.447      -45868.722     -45869.719      67635.1       -0.95529988     4.7065889e-11 -6.7127852e-10  8.5053145      7.3658174      44.995496      2818.9046    
       684   0             -74.9582       -8086.8026     -45928.033     -45929.03       67596.655     -0.95659838     9.9842487e-12 -5.7651099e-10  8.5047248      7.3653067      44.999951      2818.7927    
Loop time of 0.0402083 on 6 procs for 100 steps with 112 atoms

597.3% CPU use with 1 MPI tasks x 6 OpenMP threads

Minimization stats:
  Stopping criterion = max iterations
  Energy initial, next-to-last, final = 
     -72.7934079815849  -74.9351883744798  -74.9582046544906
  Force two-norm initial, final = 161.17252 164.7173
  Force max component initial, final = 127.3835 117.74709
  Final line search alpha, max atom move = 8.4843554e-07 9.9900818e-05
  Iterations, force evaluations = 100 100

MPI task timing breakdown:
Section |  min time  |  avg time  |  max time  |%varavg| %total
---------------------------------------------------------------
Pair    | 0.030925   | 0.030925   | 0.030925   |   0.0 | 76.91
Neigh   | 0          | 0          | 0          |   0.0 |  0.00
Comm    | 0.00056316 | 0.00056316 | 0.00056316 |   0.0 |  1.40
Output  | 0.0060094  | 0.0060094  | 0.0060094  |   0.0 | 14.95
Modify  | 0.00057373 | 0.00057373 | 0.00057373 |   0.0 |  1.43
Other   |            | 0.002137   |            |       |  5.32

Nlocal:            112 ave         112 max         112 min
Histogram: 1 0 0 0 0 0 0 0 0 0
Nghost:           1008 ave        1008 max        1008 min
Histogram: 1 0 0 0 0 0 0 0 0 0
Neighs:              0 ave           0 max           0 min
Histogram: 1 0 0 0 0 0 0 0 0 0
FullNghs:         3936 ave        3936 max        3936 min
Histogram: 1 0 0 0 0 0 0 0 0 0

Total # of neighbors = 3936
Ave neighs/atom = 35.142857
Neighbor list builds = 0
Dangerous builds = 0

variable tmp equal pxx
variable pxx0 equal ${tmp}
variable pxx0 equal -45928.0327858493
variable tmp equal pyy
variable pyy0 equal ${tmp}
variable pyy0 equal -45929.0295679866
variable tmp equal pzz
variable pzz0 equal ${tmp}
variable pzz0 equal 67596.654531786
variable tmp equal pyz
variable pyz0 equal ${tmp}
variable pyz0 equal -5.7651098999978e-10
variable tmp equal pxz
variable pxz0 equal ${tmp}
variable pxz0 equal 9.98424871170279e-12
variable tmp equal pxy
variable pxy0 equal ${tmp}
variable pxy0 equal -0.956598380806987

variable tmp equal lx
variable lx0 equal ${tmp}
variable lx0 equal 8.50472481486349
variable tmp equal ly
variable ly0 equal ${tmp}
variable ly0 equal 7.36530668572209
variable tmp equal lz
variable lz0 equal ${tmp}
variable lz0 equal 44.9999513541228

# These formulas define the derivatives w.r.t. strain components
# Constants uses $, variables use v_
variable d1 equal -(v_pxx1-${pxx0})/(v_delta/v_len0)*${cfac}
variable d1 equal -(v_pxx1--45928.0327858493)/(v_delta/v_len0)*${cfac}
variable d1 equal -(v_pxx1--45928.0327858493)/(v_delta/v_len0)*0.0001
variable d2 equal -(v_pyy1-${pyy0})/(v_delta/v_len0)*${cfac}
variable d2 equal -(v_pyy1--45929.0295679866)/(v_delta/v_len0)*${cfac}
variable d2 equal -(v_pyy1--45929.0295679866)/(v_delta/v_len0)*0.0001
variable d3 equal -(v_pzz1-${pzz0})/(v_delta/v_len0)*${cfac}
variable d3 equal -(v_pzz1-67596.654531786)/(v_delta/v_len0)*${cfac}
variable d3 equal -(v_pzz1-67596.654531786)/(v_delta/v_len0)*0.0001
variable d4 equal -(v_pyz1-${pyz0})/(v_delta/v_len0)*${cfac}
variable d4 equal -(v_pyz1--5.7651098999978e-10)/(v_delta/v_len0)*${cfac}
variable d4 equal -(v_pyz1--5.7651098999978e-10)/(v_delta/v_len0)*0.0001
variable d5 equal -(v_pxz1-${pxz0})/(v_delta/v_len0)*${cfac}
variable d5 equal -(v_pxz1-9.98424871170279e-12)/(v_delta/v_len0)*${cfac}
variable d5 equal -(v_pxz1-9.98424871170279e-12)/(v_delta/v_len0)*0.0001
variable d6 equal -(v_pxy1-${pxy0})/(v_delta/v_len0)*${cfac}
variable d6 equal -(v_pxy1--0.956598380806987)/(v_delta/v_len0)*${cfac}
variable d6 equal -(v_pxy1--0.956598380806987)/(v_delta/v_len0)*0.0001

displace_atoms all random ${atomjiggle} ${atomjiggle} ${atomjiggle} 87287 units box
displace_atoms all random 1e-05 ${atomjiggle} ${atomjiggle} 87287 units box
displace_atoms all random 1e-05 1e-05 ${atomjiggle} 87287 units box
displace_atoms all random 1e-05 1e-05 1e-05 87287 units box
Displacing atoms ...

# Write restart
unfix deform_relax
write_restart restart.equil
System init for write_restart ...
Last active /omp style is pair_style tersoff/omp

variable dir equal 1
include in.displace.mod
# NOTE: This script should not need to be
# modified. See in.elastic for more info.
#
# Find which reference length to use

if "${dir} == 1" then    "variable len0 equal ${lx0}"
variable len0 equal ${lx0}
variable len0 equal 8.50472481486349
if "${dir} == 2" then    "variable len0 equal ${ly0}"
if "${dir} == 3" then    "variable len0 equal ${lz0}"
if "${dir} == 4" then    "variable len0 equal ${lz0}"
if "${dir} == 5" then    "variable len0 equal ${lz0}"
if "${dir} == 6" then    "variable len0 equal ${ly0}"

# Reset box and simulation parameters

clear
  using 6 OpenMP thread(s) per MPI task
package omp 0
using multi-threaded neighbor list subroutines
box tilt large

The 'box' command has been removed and will be ignored

read_restart restart.equil
Reading restart file ...
  restart file = 7 Feb 2024, LAMMPS = 7 Feb 2024
  restoring atom style atomic from restart
  triclinic box = (-1.2352624 -1.0697681 -6.7917757) to (7.2694624 6.2955386 38.208176) with tilt (-4.2523618 0 0)
WARNING: Triclinic box skew is large. LAMMPS will run inefficiently. (src/domain.cpp:219)
  1 by 1 by 1 MPI processor grid
  pair style tersoff stores no restart info
  112 atoms
  read_restart CPU = 0.001 seconds
include in.potential.mod
# NOTE: This script can be modified for different pair styles
# See in.elastic for more info.

# Choose potential
pair_style tersoff
pair_coeff * * WB.tersoff W B

# Setup neighbor style
neighbor 1.0 nsq
neigh_modify once no every 1 delay 0 check yes

# Setup minimization style
min_style	cg
min_modify dmax ${dmax} line quadratic
min_modify dmax 0.01 line quadratic

# Setup output
thermo 1
thermo_style custom step temp pe press pxx pyy pzz pxy pxz pyz lx ly lz vol
thermo_modify norm no

dump 2 all atom 10 dump.W2B5_elastic.lammpstrj

# Negative deformation

variable delta equal -${up}*${len0}
variable delta equal -1e-06*${len0}
variable delta equal -1e-06*8.50472481486349
variable deltaxy equal -${up}*xy
variable deltaxy equal -1e-06*xy
variable deltaxz equal -${up}*xz
variable deltaxz equal -1e-06*xz
variable deltayz equal -${up}*yz
variable deltayz equal -1e-06*yz
if "${dir} == 1" then    "change_box all x delta 0 ${delta} xy delta ${deltaxy} xz delta ${deltaxz} remap units box"
change_box all x delta 0 ${delta} xy delta ${deltaxy} xz delta ${deltaxz} remap units box
change_box all x delta 0 -8.50472481486349e-06 xy delta ${deltaxy} xz delta ${deltaxz} remap units box
change_box all x delta 0 -8.50472481486349e-06 xy delta 4.25236179766585e-06 xz delta ${deltaxz} remap units box
change_box all x delta 0 -8.50472481486349e-06 xy delta 4.25236179766585e-06 xz delta -0 remap units box
Changing box ...
WARNING: Triclinic box skew is large. LAMMPS will run inefficiently. (src/domain.cpp:219)
  triclinic box = (-1.2352624 -1.0697681 -6.7917757) to (7.2694539 6.2955386 38.208176) with tilt (-4.2523618 0 0)
WARNING: Triclinic box skew is large. LAMMPS will run inefficiently. (src/domain.cpp:219)
  triclinic box = (-1.2352624 -1.0697681 -6.7917757) to (7.2694539 6.2955386 38.208176) with tilt (-4.2523575 0 0)
WARNING: Triclinic box skew is large. LAMMPS will run inefficiently. (src/domain.cpp:219)
  triclinic box = (-1.2352624 -1.0697681 -6.7917757) to (7.2694539 6.2955386 38.208176) with tilt (-4.2523575 0 0)
if "${dir} == 2" then    "change_box all y delta 0 ${delta} yz delta ${deltayz} remap units box"
if "${dir} == 3" then    "change_box all z delta 0 ${delta} remap units box"
if "${dir} == 4" then    "change_box all yz delta ${delta} remap units box"
if "${dir} == 5" then    "change_box all xz delta ${delta} remap units box"
if "${dir} == 6" then    "change_box all xy delta ${delta} remap units box"

# Relax atoms positions

minimize ${etol} ${ftol} ${maxiter} ${maxeval}
minimize 0 ${ftol} ${maxiter} ${maxeval}
minimize 0 1e-10 ${maxiter} ${maxeval}
minimize 0 1e-10 100 ${maxeval}
minimize 0 1e-10 100 1000
Last active /omp style is pair_style tersoff/omp
Neighbor list info ...
  update: every = 1 steps, delay = 0 steps, check = yes
  max neighbors/atom: 2000, page size: 100000
  master list distance cutoff = 6.240189
  ghost atom cutoff = 6.240189
  1 neighbor lists, perpetual/occasional/extra = 1 0 0
  (1) pair tersoff/omp, perpetual
      attributes: full, newton on, omp
      pair build: full/nsq/omp
      stencil: none
      bin: none
Per MPI rank memory allocation (min/avg/max) = 8.624 | 8.624 | 8.624 Mbytes
   Step          Temp          PotEng         Press           Pxx            Pyy            Pzz            Pxy            Pxz            Pyz             Lx             Ly             Lz           Volume    
       684   0             -74.958329     -8085.9142     -45928.117     -45928.137      67598.512     -1.0167904     -0.25831806    -0.26518022     8.5047163      7.3653067      44.999951      2818.7899    
       685   0             -75.329737     -10341.525     -49496.475     -49496.43       67968.331     -0.88795712    -0.20497966    -0.21940704     8.5047163      7.3653067      44.999951      2818.7899    
       686   0             -75.567995     -12941.828     -53372.449     -53372.325      67919.288     -0.71509905    -0.13614036    -0.16067426     8.5047163      7.3653067      44.999951      2818.7899    
       687   0             -75.65643      -16378.617     -57942.877     -57942.65       66749.676     -0.43293548    -0.03770133    -0.073504977    8.5047163      7.3653067      44.999951      2818.7899    
       688   0             -75.661984     -17848.155     -58954.355     -58954.092      64363.981     -0.15554407     0.015687148   -0.011529764    8.5047163      7.3653067      44.999951      2818.7899    
       689   0             -75.662426     -17175.834     -58447.168     -58446.913      65366.578     -0.055896726    0.010145874    0.00072726756  8.5047163      7.3653067      44.999951      2818.7899    
       690   0             -75.662426     -17169.038     -58439.257     -58439.006      65371.149     -0.030947241    0.0052468819   0.00038207874  8.5047163      7.3653067      44.999951      2818.7899    
       691   0             -75.662426     -17167.372     -58438.238     -58437.993      65374.116      0.00037078813  0.00010559897  7.4249954e-06  8.5047163      7.3653067      44.999951      2818.7899    
       692   0             -75.662426     -17169.359     -58439.709     -58439.467      65371.097      0.013634158   -0.00074729825 -6.0415559e-05  8.5047163      7.3653067      44.999951      2818.7899    
       693   0             -75.662427     -17177.97      -58446.88      -58446.683      65359.654      0.23529867    -0.0038150744  -0.00019455319  8.5047163      7.3653067      44.999951      2818.7899    
       694   0             -75.665636     -17547.501     -58752.773     -58768.593      64878.864      12.629362     -0.86866793     1.0540475      8.5047163      7.3653067      44.999951      2818.7899    
       695   0             -75.675054     -17921.464     -59054.143     -59112.363      64402.115      21.410224     -2.7797403      3.9009684      8.5047163      7.3653067      44.999951      2818.7899    
       696   0             -75.690601     -18300.914     -59351.676     -59479.252      63928.187      26.634998     -5.3762136      8.5834693      8.5047163      7.3653067      44.999951      2818.7899    
       697   0             -75.712183     -18684.836     -59644.654     -59868.493      63458.639      28.362503     -8.6219475      15.938378      8.5047163      7.3653067      44.999951      2818.7899    
       698   0             -75.739755     -19062.383     -59925.48      -60270.086      63008.417      26.627267     -13.113767      26.827737      8.5047163      7.3653067      44.999951      2818.7899    
       699   0             -75.773675     -19315.952     -60127.539     -60564.377      62744.061      9.0105143     -45.506875      75.762529      8.5047163      7.3653067      44.999951      2818.7899    
       700   0             -75.81597      -18832.225     -59868.312     -60169.587      63541.224     -41.134947     -178.61286      31.287652      8.5047163      7.3653067      44.999951      2818.7899    
       701   0             -75.873286     -17149.294     -58690.712     -58741.511      65984.34      -74.923556     -237.25508      33.004259      8.5047163      7.3653067      44.999951      2818.7899    
       702   0             -75.936989     -15197.034     -57307.599     -57072.59       68789.088     -56.084413     -136.54373      118.70192      8.5047163      7.3653067      44.999951      2818.7899    
       703   0             -76.005305     -14127.912     -56715.142     -56159.668      70491.076     -38.809808     -161.82027      297.48689      8.5047163      7.3653067      44.999951      2818.7899    
       704   0             -76.081466     -13421.584     -56379.634     -55632.448      71747.331      15.454758     -217.58089      423.53198      8.5047163      7.3653067      44.999951      2818.7899    
       705   0             -76.164064     -12671.818     -55952.551     -55101.674      73038.771      78.94059      -320.44321      562.47469      8.5047163      7.3653067      44.999951      2818.7899    
       706   0             -76.254329     -11814.476     -55415.392     -54515.992      74487.958      176.944       -503.48497      684.27128      8.5047163      7.3653067      44.999951      2818.7899    
       707   0             -76.35284      -10901.771     -54844.492     -53903.054      76042.232      202.07147     -515.28657      827.92211      8.5047163      7.3653067      44.999951      2818.7899    
       708   0             -76.460309     -9848.6898     -54134.335     -53243.912      77832.178      280.77156     -585.97472      955.7316       8.5047163      7.3653067      44.999951      2818.7899    
       709   0             -76.57856      -8645.6756     -53324.69      -52493.023      79880.686      348.03277     -592.21486      1090.5718      8.5047163      7.3653067      44.999951      2818.7899    
       710   0             -76.712093     -7337.1859     -52493.937     -51628.147      82110.526      416.79155     -604.59798      1114.1657      8.5047163      7.3653067      44.999951      2818.7899    
       711   0             -76.857478     -5823.879      -51565.23      -50567.738      84661.331      478.37406     -646.53262      1132.3761      8.5047163      7.3653067      44.999951      2818.7899    
       712   0             -77.01067      -4224.0697     -50573.757     -49459.019      87360.567      488.69068     -728.66801      1199.1514      8.5047163      7.3653067      44.999951      2818.7899    
       713   0             -77.174191     -2568.8509     -49514.321     -48341.6        90149.368      486.42608     -760.54174      1225.3845      8.5047163      7.3653067      44.999951      2818.7899    
       714   0             -77.341867     -1002.4992     -48495.485     -47313.67       92801.657      491.53447     -781.11841      1257.508       8.5047163      7.3653067      44.999951      2818.7899    
       715   0             -77.518477      557.92865     -47460.414     -46305.938      95440.138      505.1252      -810.14254      1258.9326      8.5047163      7.3653067      44.999951      2818.7899    
       716   0             -77.697368      2018.4756     -46476.663     -45383.772      97915.863      520.39997     -852.35251      1252.6765      8.5047163      7.3653067      44.999951      2818.7899    
       717   0             -77.883417      3422.0618     -45518.283     -44511.874      100296.34      531.03138     -892.71347      1046.4191      8.5047163      7.3653067      44.999951      2818.7899    
       718   0             -78.06585       4374.6004     -44993.449     -43915.961      102033.21      576.20664     -902.09325      640.65107      8.5047163      7.3653067      44.999951      2818.7899    
       719   0             -78.251141      5389.2236     -44369.35      -43264.339      103801.36      619.87676     -868.48517      369.88182      8.5047163      7.3653067      44.999951      2818.7899    
       720   0             -78.433254      6104.9298     -44041.015     -42783.145      105138.95      626.68079     -903.98933      155.67789      8.5047163      7.3653067      44.999951      2818.7899    
       721   0             -78.622543      7292.1557     -43167.417     -42000.622      107044.51      668.34705     -864.06195      146.6589       8.5047163      7.3653067      44.999951      2818.7899    
       722   0             -78.807918      7311.1451     -43622.764     -41892.934      107449.13      659.56951     -886.75876     -605.66905      8.5047163      7.3653067      44.999951      2818.7899    
       723   0             -79.000134      9586.1082     -41496.399     -40406.73       110661.45      573.5905      -1032.2868      603.37068      8.5047163      7.3653067      44.999951      2818.7899    
       724   0             -79.197757      9843.6292     -41708.794     -40203.87       111443.55      715.60763     -988.22201     -345.85566      8.5047163      7.3653067      44.999951      2818.7899    
       725   0             -79.404153      8987.0392     -43124.916     -40544.281      110630.32      761.35731     -861.95743     -1896.8791      8.5047163      7.3653067      44.999951      2818.7899    
       726   0             -79.613025      11180.076     -40990.13      -39178.574      113708.93      547.76552     -1127.0688     -824.04968      8.5047163      7.3653067      44.999951      2818.7899    
       727   0             -79.820136      12259.832     -40376.905     -38384.009      115540.41      1003.1925     -541.85981     -806.79769      8.5047163      7.3653067      44.999951      2818.7899    
       728   0             -80.038098      12619.369     -40407.844     -38241.809      116507.76      883.43477     -634.56769     -2407.8939      8.5047163      7.3653067      44.999951      2818.7899    
       729   0             -80.26725       13673.993     -39903         -37406.908      118331.89      61.384504     -1989.3267     -1688.5188      8.5047163      7.3653067      44.999951      2818.7899    
       730   0             -80.511651      15152.667     -39242.113     -36850.918      121551.03      1039.9716     -744.95996     -2633.7832      8.5047163      7.3653067      44.999951      2818.7899    
       731   0             -80.744761      17411.127     -38686.997     -36240.837      127161.22      1054.5919     -532.65132     -2755.4725      8.5047163      7.3653067      44.999951      2818.7899    
       732   0             -80.98557       22510.486     -37469.562     -35254.938      140255.96      1376.7281     -225.224       -1799.7747      8.5047163      7.3653067      44.999951      2818.7899    
       733   0             -81.251266      18018.975     -36548.843     -34772.712      125378.48      1513.2138     -139.83403     -4139.9815      8.5047163      7.3653067      44.999951      2818.7899    
       734   0             -81.48666       19766.719     -35251.395     -34009.047      128560.6       1680.5906     -71.172067     -4434.6349      8.5047163      7.3653067      44.999951      2818.7899    
       735   0             -81.590069      14267.955     -34350.576     -33606.245      110760.69      1834.211      -296.85573     -2940.5901      8.5047163      7.3653067      44.999951      2818.7899    
       736   0             -81.827039      12743.683     -36100.183     -34060.911      108392.14      19.774834     -622.1665      -3439.6362      8.5047163      7.3653067      44.999951      2818.7899    
       737   0             -82.101643      10554.946     -38627.472     -34918.571      105210.88      913.61115     -755.59351     -4564.5633      8.5047163      7.3653067      44.999951      2818.7899    
       738   0             -82.368381      10723.749     -38396.795     -34457.778      105025.82      599.25119     -1350.6608     -4500.3462      8.5047163      7.3653067      44.999951      2818.7899    
       739   0             -82.628186      10651.791     -38515.782     -34299.318      104770.47      827.14015     -778.28432     -5126.6867      8.5047163      7.3653067      44.999951      2818.7899    
       740   0             -82.888483      11728.713     -37398.214     -33463.598      106047.95      566.38048     -1332.8424     -4996.3947      8.5047163      7.3653067      44.999951      2818.7899    
       741   0             -83.155279      11906.694     -37584.378     -33235.636      106540.1       827.4909      -616.47971     -5617.1537      8.5047163      7.3653067      44.999951      2818.7899    
       742   0             -83.436418      13739.7       -36145.464     -32281.29       109645.86      408.31709     -991.29165     -5538.731       8.5047163      7.3653067      44.999951      2818.7899    
       743   0             -83.753327      16227.199     -35202.76      -31515.877      115400.24      266.62913     -561.49392     -5817.7476      8.5047163      7.3653067      44.999951      2818.7899    
       744   0             -84.200283      22800.96      -32927.481     -30260.32       131590.68     -198.44472     -334.71003     -6284.6592      8.5047163      7.3653067      44.999951      2818.7899    
       745   0             -84.582223      12176.548     -30814.126     -29176.238      96520.007     -1034.4765     -1954.0414     -4667.9886      8.5047163      7.3653067      44.999951      2818.7899    
       746   0             -84.918572      9103.8298     -34170.378     -30368.037      91849.904      399.87335     -2729.7488     -5939.2024      8.5047163      7.3653067      44.999951      2818.7899    
       747   0             -85.24192       7996.6176     -35356.315     -30567.241      89913.409      449.55184     -1507.5766     -6338.6696      8.5047163      7.3653067      44.999951      2818.7899    
       748   0             -85.571004      8212.1433     -35075.004     -30237.033      89948.467      271.31454     -1552.2775     -6323.1402      8.5047163      7.3653067      44.999951      2818.7899    
       749   0             -85.917799      8297.4868     -35395.508     -30234.492      90522.46       534.52642     -884.27648     -6424.3134      8.5047163      7.3653067      44.999951      2818.7899    
       750   0             -86.309523      8155.1017     -34911.656     -29907.018      89283.979      442.84179     -812.90658     -6678.064       8.5047163      7.3653067      44.999951      2818.7899    
       751   0             -86.664391      5177.6248     -34858.058     -29953.466      80344.399      549.08157     -647.44949     -8124.893       8.5047163      7.3653067      44.999951      2818.7899    
       752   0             -87.000997      4528.7961     -35139.95      -30304.17       79030.508      1076.3877     -1364.8287     -7839.5794      8.5047163      7.3653067      44.999951      2818.7899    
       753   0             -87.339328      4200.4297     -35109.268     -30325.243      78035.801      1169.9148     -1284.4311     -8054.8182      8.5047163      7.3653067      44.999951      2818.7899    
       754   0             -87.682184      3954.2975     -35021.701     -30300.715      77185.309      1205.2081     -1251.0948     -8226.1427      8.5047163      7.3653067      44.999951      2818.7899    
       755   0             -88.030708      3825.9286     -34838.663     -30211.598      76528.046      1208.8412     -1210.3703     -8420.7528      8.5047163      7.3653067      44.999951      2818.7899    
       756   0             -88.38599       3794.9699     -34592.922     -30060.136      76037.968      1229.4721     -1228.1234     -8649.329       8.5047163      7.3653067      44.999951      2818.7899    
       757   0             -88.748766      4030.3717     -34069.526     -29820.421      75981.062      1153.8719     -971.71589     -8972.9336      8.5047163      7.3653067      44.999951      2818.7899    
       758   0             -89.119735      3997.5911     -33948.94      -29653.877      75595.59       1202.2877     -1093.6276     -9091.1659      8.5047163      7.3653067      44.999951      2818.7899    
       759   0             -89.500325      4445.4191     -33341.399     -29343.847      76021.503      1199.1123     -1000.3318     -9357.7974      8.5047163      7.3653067      44.999951      2818.7899    
       760   0             -89.89355       4636.7467     -33256.222     -29132.944      76299.406      1257.3387     -1093.7137     -9349.7214      8.5047163      7.3653067      44.999951      2818.7899    
       761   0             -90.304246      9940.1337     -22540.322     -26155.679      78516.402      6302.3181     -1450.9419     -9686.2826      8.5047163      7.3653067      44.999951      2818.7899    
       762   0             -90.73666       7718.4521     -30578.877     -27639.063      81373.297      2993.7009     -3713.811      -10741.445      8.5047163      7.3653067      44.999951      2818.7899    
       763   0             -91.184147      3003.5181     -31434.041     -27871.373      68315.968      2497.4673     -2357.9003     -11665.934      8.5047163      7.3653067      44.999951      2818.7899    
       764   0             -91.612991      2599.1059     -31569.86      -28011.807      67378.985      1944.9461     -1668.4846     -11118.203      8.5047163      7.3653067      44.999951      2818.7899    
       765   0             -92.045227      2492.0014     -31398.314     -28090.664      66964.983      1534.6627     -1327.1029     -10846.671      8.5047163      7.3653067      44.999951      2818.7899    
       766   0             -92.483841      3222.4815     -30252.407     -27783.817      67703.669      1228.29       -888.75114     -11160.953      8.5047163      7.3653067      44.999951      2818.7899    
       767   0             -92.932195      2338.8914     -31184.245     -27840.548      66041.467      1091.2999     -836.45921     -10519.253      8.5047163      7.3653067      44.999951      2818.7899    
       768   0             -93.391326      5119.9103     -27586.655     -26768.33       69714.716      1254.7669     -1131.3157     -12071.633      8.5047163      7.3653067      44.999951      2818.7899    
       769   0             -93.859764      9382.9893     -15103.917     -23103.882      66356.767     -6781.9991      962.07813     -11431.166      8.5047163      7.3653067      44.999951      2818.7899    
       770   0             -94.32014       6777.3232     -25294.268     -25700.077      71326.314     -1212.256       4020.9691     -12738.655      8.5047163      7.3653067      44.999951      2818.7899    
       771   0             -94.817918      3851.8873     -28870.63      -26299.396      66725.688      764.54302     -321.43764     -10599.463      8.5047163      7.3653067      44.999951      2818.7899    
       772   0             -95.33643       4436.416      -28146.644     -25818.679      67274.57       665.86297     -22.697264     -10873.081      8.5047163      7.3653067      44.999951      2818.7899    
       773   0             -95.873672      5659.2462     -26624.614     -25129.609      68731.962      248.48145      934.16663     -11561.099      8.5047163      7.3653067      44.999951      2818.7899    
       774   0             -96.429452      5591.9879     -26720.168     -24803.509      68299.641      712.31412     -79.570312     -11333.976      8.5047163      7.3653067      44.999951      2818.7899    
       775   0             -97.000643      11022.708     -19937.781     -22774.107      75780.013      834.72369     -617.28939     -14651.481      8.5047163      7.3653067      44.999951      2818.7899    
       776   0             -97.593189      6377.1427     -25756.282     -23850.249      68737.958      768.71322     -351.35318     -11347.645      8.5047163      7.3653067      44.999951      2818.7899    
       777   0             -98.176486      31382.723      32624.852     -9326.0017      70849.317     -27529.03       7254.0077     -15380.651      8.5047163      7.3653067      44.999951      2818.7899    
       778   0             -98.806109      11544.467     -19568.456     -21587.835      75789.691     -1547.4521      4256.3907     -14355.61       8.5047163      7.3653067      44.999951      2818.7899    
       779   0             -99.42209       8964.4998     -22961.583     -22103.621      71958.704      339.58216      209.72087     -12279.19       8.5047163      7.3653067      44.999951      2818.7899    
       780   0             -100.00478      40883.489      50249.815     -4800.615       77201.266      32732.198     -7286.2652     -18218.611      8.5047163      7.3653067      44.999951      2818.7899    
       781   0             -100.58508      50952.441      62648.623     -966.10269      91174.802     -28324.304      621.70515     -24815.771      8.5047163      7.3653067      44.999951      2818.7899    
       782   0             -101.15857      38086.657      21939.669     -9651.6129      101971.91      14914.447     -13652.014     -25898.234      8.5047163      7.3653067      44.999951      2818.7899    
       783   0             -101.89238      14381.334     -16868.394     -19103.216      79115.611      2556.7281     -4467.1197     -14058.888      8.5047163      7.3653067      44.999951      2818.7899    
       784   0             -102.50848      49161.421      67718.41       111.24692      79654.607     -40497.421      14399.994     -19096.335      8.5047163      7.3653067      44.999951      2818.7899    
Loop time of 0.0411535 on 6 procs for 100 steps with 112 atoms

707.5% CPU use with 1 MPI tasks x 6 OpenMP threads

Minimization stats:
  Stopping criterion = max iterations
  Energy initial, next-to-last, final = 
     -74.9583286096584  -101.892383327755  -102.508482680014
  Force two-norm initial, final = 6.7163605 111.51141
  Force max component initial, final = 1.0357245 70.137637
  Final line search alpha, max atom move = 0.0010015819 0.07024859
  Iterations, force evaluations = 100 106

MPI task timing breakdown:
Section |  min time  |  avg time  |  max time  |%varavg| %total
---------------------------------------------------------------
Pair    | 0.032531   | 0.032531   | 0.032531   |   0.0 | 79.05
Neigh   | 0.0001361  | 0.0001361  | 0.0001361  |   0.0 |  0.33
Comm    | 0.0018339  | 0.0018339  | 0.0018339  |   0.0 |  4.46
Output  | 0.0052749  | 0.0052749  | 0.0052749  |   0.0 | 12.82
Modify  | 0.00080274 | 0.00080274 | 0.00080274 |   0.0 |  1.95
Other   |            | 0.000575   |            |       |  1.40

Nlocal:            112 ave         112 max         112 min
Histogram: 1 0 0 0 0 0 0 0 0 0
Nghost:           1008 ave        1008 max        1008 min
Histogram: 1 0 0 0 0 0 0 0 0 0
Neighs:              0 ave           0 max           0 min
Histogram: 1 0 0 0 0 0 0 0 0 0
FullNghs:         3886 ave        3886 max        3886 min
Histogram: 1 0 0 0 0 0 0 0 0 0

Total # of neighbors = 3886
Ave neighs/atom = 34.696429
Neighbor list builds = 1
Dangerous builds = 0

# Obtain new stress tensor

variable tmp equal pxx
variable pxx1 equal ${tmp}
variable pxx1 equal 67718.4095472389
variable tmp equal pyy
variable pyy1 equal ${tmp}
variable pyy1 equal 111.246923500398
variable tmp equal pzz
variable pzz1 equal ${tmp}
variable pzz1 equal 79654.6066174908
variable tmp equal pxy
variable pxy1 equal ${tmp}
variable pxy1 equal -40497.4211248454
variable tmp equal pxz
variable pxz1 equal ${tmp}
variable pxz1 equal 14399.9935311167
variable tmp equal pyz
variable pyz1 equal ${tmp}
variable pyz1 equal -19096.3354591047

# Compute elastic constant from pressure tensor

variable C1neg equal ${d1}
variable C1neg equal 11364644.2333088
variable C2neg equal ${d2}
variable C2neg equal 4604027.6491487
variable C3neg equal ${d3}
variable C3neg equal 1205795.20857048
variable C4neg equal ${d4}
variable C4neg equal -1909633.54591041
variable C5neg equal ${d5}
variable C5neg equal 1439999.35311167
variable C6neg equal ${d6}
variable C6neg equal -4049646.45264646

# Reset box and simulation parameters

clear
  using 6 OpenMP thread(s) per MPI task
package omp 0
using multi-threaded neighbor list subroutines
box tilt large

The 'box' command has been removed and will be ignored

read_restart restart.equil
Reading restart file ...
  restart file = 7 Feb 2024, LAMMPS = 7 Feb 2024
  restoring atom style atomic from restart
  triclinic box = (-1.2352624 -1.0697681 -6.7917757) to (7.2694624 6.2955386 38.208176) with tilt (-4.2523618 0 0)
WARNING: Triclinic box skew is large. LAMMPS will run inefficiently. (src/domain.cpp:219)
  1 by 1 by 1 MPI processor grid
  pair style tersoff stores no restart info
  112 atoms
  read_restart CPU = 0.000 seconds
include in.potential.mod
# NOTE: This script can be modified for different pair styles
# See in.elastic for more info.

# Choose potential
pair_style tersoff
pair_coeff * * WB.tersoff W B

# Setup neighbor style
neighbor 1.0 nsq
neigh_modify once no every 1 delay 0 check yes

# Setup minimization style
min_style	cg
min_modify dmax ${dmax} line quadratic
min_modify dmax 0.01 line quadratic

# Setup output
thermo 1
thermo_style custom step temp pe press pxx pyy pzz pxy pxz pyz lx ly lz vol
thermo_modify norm no

dump 2 all atom 10 dump.W2B5_elastic.lammpstrj

# Positive deformation

variable delta equal ${up}*${len0}
variable delta equal 1e-06*${len0}
variable delta equal 1e-06*8.50472481486349
variable deltaxy equal ${up}*xy
variable deltaxy equal 1e-06*xy
variable deltaxz equal ${up}*xz
variable deltaxz equal 1e-06*xz
variable deltayz equal ${up}*yz
variable deltayz equal 1e-06*yz
if "${dir} == 1" then    "change_box all x delta 0 ${delta} xy delta ${deltaxy} xz delta ${deltaxz} remap units box"
change_box all x delta 0 ${delta} xy delta ${deltaxy} xz delta ${deltaxz} remap units box
change_box all x delta 0 8.50472481486349e-06 xy delta ${deltaxy} xz delta ${deltaxz} remap units box
change_box all x delta 0 8.50472481486349e-06 xy delta -4.25236179766585e-06 xz delta ${deltaxz} remap units box
change_box all x delta 0 8.50472481486349e-06 xy delta -4.25236179766585e-06 xz delta 0 remap units box
Changing box ...
WARNING: Triclinic box skew is large. LAMMPS will run inefficiently. (src/domain.cpp:219)
  triclinic box = (-1.2352624 -1.0697681 -6.7917757) to (7.2694709 6.2955386 38.208176) with tilt (-4.2523618 0 0)
WARNING: Triclinic box skew is large. LAMMPS will run inefficiently. (src/domain.cpp:219)
  triclinic box = (-1.2352624 -1.0697681 -6.7917757) to (7.2694709 6.2955386 38.208176) with tilt (-4.2523661 0 0)
WARNING: Triclinic box skew is large. LAMMPS will run inefficiently. (src/domain.cpp:219)
  triclinic box = (-1.2352624 -1.0697681 -6.7917757) to (7.2694709 6.2955386 38.208176) with tilt (-4.2523661 0 0)
if "${dir} == 2" then    "change_box all y delta 0 ${delta} yz delta ${deltayz} remap units box"
if "${dir} == 3" then    "change_box all z delta 0 ${delta} remap units box"
if "${dir} == 4" then    "change_box all yz delta ${delta} remap units box"
if "${dir} == 5" then    "change_box all xz delta ${delta} remap units box"
if "${dir} == 6" then    "change_box all xy delta ${delta} remap units box"

# Relax atoms positions

minimize ${etol} ${ftol} ${maxiter} ${maxeval}
minimize 0 ${ftol} ${maxiter} ${maxeval}
minimize 0 1e-10 ${maxiter} ${maxeval}
minimize 0 1e-10 100 ${maxeval}
minimize 0 1e-10 100 1000
Last active /omp style is pair_style tersoff/omp
Neighbor list info ...
  update: every = 1 steps, delay = 0 steps, check = yes
  max neighbors/atom: 2000, page size: 100000
  master list distance cutoff = 6.240189
  ghost atom cutoff = 6.240189
  1 neighbor lists, perpetual/occasional/extra = 1 0 0
  (1) pair tersoff/omp, perpetual
      attributes: full, newton on, omp
      pair build: full/nsq/omp
      stencil: none
      bin: none
Per MPI rank memory allocation (min/avg/max) = 8.624 | 8.624 | 8.624 Mbytes
   Step          Temp          PotEng         Press           Pxx            Pyy            Pzz            Pxy            Pxz            Pyz             Lx             Ly             Lz           Volume    
       684   0             -74.958167     -8088.0347     -45930.134     -45929.026      67595.056     -1.01683       -0.25833475    -0.26516596     8.5047333      7.3653067      44.999951      2818.7956    
       685   0             -75.329554     -10343.206     -49497.947     -49496.994      67965.321     -0.88797917    -0.20498716    -0.21939691     8.5047333      7.3653067      44.999951      2818.7956    
       686   0             -75.567796     -12942.93      -53373.249     -53372.505      67916.964     -0.71510377    -0.13613992    -0.1606701      8.5047333      7.3653067      44.999951      2818.7956    
       687   0             -75.656225     -16378.883     -57942.73      -57942.348      66748.429     -0.43292709    -0.037697642   -0.073508971    8.5047333      7.3653067      44.999951      2818.7956    
       688   0             -75.661778     -17848.347     -58953.943     -58953.975      64362.876     -0.15552086     0.015690545   -0.011529936    8.5047333      7.3653067      44.999951      2818.7956    
       689   0             -75.66222      -17176.036     -58446.677     -58446.878      65365.446     -0.055888032    0.010146535    0.00072673107  8.5047333      7.3653067      44.999951      2818.7956    
       690   0             -75.662221     -17169.24      -58438.745     -58438.991      65370.016     -0.030942135    0.0052473342   0.00038184757  8.5047333      7.3653067      44.999951      2818.7956    
       691   0             -75.662221     -17167.577     -58437.703     -58438.006      65372.979      0.00038343905  0.00010374371  7.291258e-06   8.5047333      7.3653067      44.999951      2818.7956    
       692   0             -75.662221     -17169.565     -58439.163     -58439.49       65369.96       0.013634517   -0.00074645517 -6.0318264e-05  8.5047333      7.3653067      44.999951      2818.7956    
       693   0             -75.662221     -17178.191     -58446.168     -58446.9        65358.494      0.23537286    -0.0037987161  -0.0001931091   8.5047333      7.3653067      44.999951      2818.7956    
       694   0             -75.66543      -17548.639     -58741.26      -58781.135      64876.479      12.618169     -0.86794138     1.0565939      8.5047333      7.3653067      44.999951      2818.7956    
       695   0             -75.674844     -17923.578     -59031.905     -59137.245      64398.418      21.366563     -2.7780487      3.9366645      8.5047333      7.3653067      44.999951      2818.7956    
       696   0             -75.690381     -18304.112     -59318.775     -59516.587      63923.027      26.533656     -5.3692794      8.7628224      8.5047333      7.3653067      44.999951      2818.7956    
       697   0             -75.711946     -18689.251     -59601.174     -59918.416      63451.838      28.167206     -8.596264       16.502262      8.5047333      7.3653067      44.999951      2818.7956    
       698   0             -75.739491     -19068.119     -59871.661     -60332.542      62999.846      26.279206     -13.043221      28.142268      8.5047333      7.3653067      44.999951      2818.7956    
       699   0             -75.773385     -19319.229     -60064.425     -60632.385      62739.124      8.3813297     -45.449374      83.687111      8.5047333      7.3653067      44.999951      2818.7956    
       700   0             -75.815707     -18829.289     -59801.749     -60231.423      63545.305     -42.851685     -177.1722       33.590272      8.5047333      7.3653067      44.999951      2818.7956    
       701   0             -75.873173     -17142.897     -58631.724     -58790.64       65993.674     -76.307338     -236.3131       35.188295      8.5047333      7.3653067      44.999951      2818.7956    
       702   0             -75.936969     -15191.11      -57272.048     -57099.671      68798.39      -55.926024     -137.64278      120.29398      8.5047333      7.3653067      44.999951      2818.7956    
       703   0             -76.005225     -14126.06      -56695.658     -56177.227      70494.706     -38.519335     -162.82959      297.49822      8.5047333      7.3653067      44.999951      2818.7956    
       704   0             -76.08139      -13421.081     -56367.951     -55644.152      71748.859      15.868938     -218.29696      423.34911      8.5047333      7.3653067      44.999951      2818.7956    
       705   0             -76.164002     -12671.676     -55944.701     -55109.948      73039.621      79.20307      -320.85095      562.64056      8.5047333      7.3653067      44.999951      2818.7956    
       706   0             -76.254277     -11814.328     -55409.719     -54522.07       74488.803      177.25925     -503.80647      684.32804      8.5047333      7.3653067      44.999951      2818.7956    
       707   0             -76.352783     -10900.996     -54839.616     -53907.433      76044.061      202.12894     -515.00937      826.88033      8.5047333      7.3653067      44.999951      2818.7956    
       708   0             -76.460215     -9847.1593     -54129.617     -53246.924      77835.063      281.04154     -585.84708      953.17345      8.5047333      7.3653067      44.999951      2818.7956    
       709   0             -76.578388     -8643.3803     -53319.661     -52494.961      79884.481      348.23399     -592.30375      1086.6046      8.5047333      7.3653067      44.999951      2818.7956    
       710   0             -76.711758     -7336.6046     -52490.269     -51631.201      82111.657      416.58113     -604.09487      1111.4172      8.5047333      7.3653067      44.999951      2818.7956    
       711   0             -76.857068     -5824.9703     -51563.142     -50571.836      84660.067      478.32206     -645.9234       1131.1432      8.5047333      7.3653067      44.999951      2818.7956    
       712   0             -77.010246     -4224.0338     -50570.868     -49462.315      87361.082      488.98339     -728.75931      1196.949       8.5047333      7.3653067      44.999951      2818.7956    
       713   0             -77.173714     -2569.5931     -49512.747     -48344.883      90148.851      487.09275     -761.21391      1224.2141      8.5047333      7.3653067      44.999951      2818.7956    
       714   0             -77.341423     -1002.0908     -48493.498     -47315.81       92803.035      491.86795     -781.24904      1256.2268      8.5047333      7.3653067      44.999951      2818.7956    
[...]
       722   0             -78.808026      7312.799      -43621.008     -41892.794      107452.2       663.8806      -880.47229     -608.69354      8.5047248      7.3653067      44.999951      2818.7927    
       723   0             -78.999606      9630.5059     -41449.305     -40380.856      110721.68      571.58805     -1034.9376      651.54717      8.5047248      7.3653067      44.999951      2818.7927    
       724   0             -79.197922      9845.4512     -41709.241     -40204.587      111450.18      713.19339     -989.34213     -362.47932      8.5047248      7.3653067      44.999951      2818.7927    
       725   0             -79.404486      8976.6836     -43141.436     -40550.563      110622.05      770.96297     -845.83179     -1911.8062      8.5047248      7.3653067      44.999951      2818.7927    
       726   0             -79.613275      11248.111     -40914.507     -39138.818      113797.66      540.42121     -1141.8161     -764.8144       8.5047248      7.3653067      44.999951      2818.7927    
       727   0             -79.820605      12150.561     -40502.357     -38449.338      115403.38      912.76715     -671.49021     -913.15789      8.5047248      7.3653067      44.999951      2818.7927    
       728   0             -80.038609      12556.465     -40484.04      -38278.892      116432.33      918.53816     -621.12945     -2445.4897      8.5047248      7.3653067      44.999951      2818.7927    
       729   0             -80.267417      13865.903     -39676.007     -37294.756      118568.47      17.198771     -2041.2141     -1521.5242      8.5047248      7.3653067      44.999951      2818.7927    
       730   0             -80.511673      15240.528     -39187.776     -36785.029      121694.39      1102.922      -631.177       -2522.5242      8.5047248      7.3653067      44.999951      2818.7927    
       731   0             -80.74458       17582.183     -38464.61      -36131.049      127342.21      1164.6239     -302.72923     -2667.6826      8.5047248      7.3653067      44.999951      2818.7927    
       732   0             -80.986556      21819.039     -38168.349     -35658.869      139284.33      946.4493      -806.21455     -2431.7455      8.5047248      7.3653067      44.999951      2818.7927    
       733   0             -81.252845      17335.653     -37240.021     -35155.204      124402.18      1213.6886     -585.77114     -4694.5052      8.5047248      7.3653067      44.999951      2818.7927    
       734   0             -81.490532      19745.923     -35248.566     -33965.238      128451.57      1882.9856      142.00855     -4334.3573      8.5047248      7.3653067      44.999951      2818.7927    
       735   0             -81.59433       14346.278     -34286.652     -33541.148      110866.64      1979.3424     -152.51274     -2837.3832      8.5047248      7.3653067      44.999951      2818.7927    
       736   0             -81.831044      12990.874     -35826.723     -33913.622      108712.97     -56.535567     -752.50094     -3273.9452      8.5047248      7.3653067      44.999951      2818.7927    
       737   0             -82.106588      10530.896     -38676.346     -34924.76       105193.79      965.4632      -687.19857     -4600.8322      8.5047248      7.3653067      44.999951      2818.7927    
       738   0             -82.373449      10825.283     -38293.951     -34384.263      105154.06      536.30527     -1437.2103     -4413.7062      8.5047248      7.3653067      44.999951      2818.7927    
       739   0             -82.633639      10618.31      -38584.156     -34303.604      104742.69      853.84195     -676.58952     -5145.0036      8.5047248      7.3653067      44.999951      2818.7927    
       740   0             -82.894727      11574.142     -37607.607     -33558.923      105888.96      563.45811     -1317.3933     -5163.0048      8.5047248      7.3653067      44.999951      2818.7927    
       741   0             -83.162136      12082.054     -37396.113     -33147.979      106790.25      743.19238     -679.04912     -5577.3864      8.5047248      7.3653067      44.999951      2818.7927    
       742   0             -83.44409       13768.539     -36164.973     -32272.48       109743.07      468.61342     -821.92549     -5548.2178      8.5047248      7.3653067      44.999951      2818.7927    
       743   0             -83.763642      15993.353     -35569.394     -31726.315      115275.77      573.32442     -116.5219      -6153.1812      8.5047248      7.3653067      44.999951      2818.7927    
       744   0             -84.221553      23992.736     -31880.073     -29555.128      133413.41     -1091.9704     -1345.7034     -5239.9293      8.5047248      7.3653067      44.999951      2818.7927    
       745   0             -84.584438      12327.271     -30657.919     -29056.346      96696.079     -1177.3422     -2113.0463     -4484.2056      8.5047248      7.3653067      44.999951      2818.7927    
       746   0             -84.922888      9136.0523     -34145.785     -30346.048      91899.99       355.11218     -2838.8567     -5959.5135      8.5047248      7.3653067      44.999951      2818.7927    
       747   0             -85.246591      7966.6069     -35404.299     -30563.891      89868.011      427.33082     -1488.9236     -6308.3995      8.5047248      7.3653067      44.999951      2818.7927    
       748   0             -85.576043      8076.9218     -35245.393     -30309.73       89785.888      372.19197     -1381.5588     -6404.774       8.5047248      7.3653067      44.999951      2818.7927    
       749   0             -85.923256      8385.1328     -35294.101     -30180.097      90629.596      484.26913     -976.067       -6364.2639      8.5047248      7.3653067      44.999951      2818.7927    
       750   0             -86.315596      8026.1909     -35014.539     -29948.506      89041.619      492.06884     -710.6755      -6737.0065      8.5047248      7.3653067      44.999951      2818.7927    
       751   0             -86.67017       5187.3228     -34841.201     -29945.015      80348.185      547.86647     -672.16732     -8114.8739      8.5047248      7.3653067      44.999951      2818.7927    
       752   0             -87.00699       4587.8136     -35063.463     -30286.324      79113.228      1119.1036     -1447.4552     -7889.6726      8.5047248      7.3653067      44.999951      2818.7927    
       753   0             -87.345667      4126.7738     -35194.183     -30346.047      77920.552      1156.2251     -1183.7386     -8040.1689      8.5047248      7.3653067      44.999951      2818.7927    
       754   0             -87.688903      4011.1813     -34946.257     -30279.276      77259.077      1233.8492     -1324.7723     -8262.3917      8.5047248      7.3653067      44.999951      2818.7927    
       755   0             -88.037832      3769.9324     -34901.202     -30224.312      76435.312      1194.504      -1132.9651     -8406.8346      8.5047248      7.3653067      44.999951      2818.7927    
       756   0             -88.393551      3848.0397     -34521.835     -30038.218      76104.173      1254.979      -1295.0702     -8682.7978      8.5047248      7.3653067      44.999951      2818.7927    
       757   0             -88.756823      3911.5288     -34210.732     -29847.225      75792.544      1182.0877     -988.3003      -8909.0991      8.5047248      7.3653067      44.999951      2818.7927    
       758   0             -89.128268      4167.386      -33734.674     -29593.345      75830.177      1214.5917     -1071.8915     -9171.0954      8.5047248      7.3653067      44.999951      2818.7927    
       759   0             -89.509386      4259.8706     -33568.014     -29391.32       75738.946      1209.9761     -987.17527     -9263.3746      8.5047248      7.3653067      44.999951      2818.7927    
       760   0             -89.90311       5753.0434     -30917.776     -28527.084      76703.991      2286.3915     -1184.9414     -9524.911       8.5047248      7.3653067      44.999951      2818.7927    
       761   0             -90.314783      5886.4974     -32359.6       -28532.829      78551.921      1969.6724     -2174.9333     -9730.2589      8.5047248      7.3653067      44.999951      2818.7927    
       762   0             -90.769882      6434.0657     -31783.88      -28196.007      79282.084      1692.553      -1481.8792     -9739.399       8.5047248      7.3653067      44.999951      2818.7927    
       763   0             -91.208308      2439.7264     -31962.633     -28224.169      67505.981      1597.7293     -979.02643     -11038.69       8.5047248      7.3653067      44.999951      2818.7927    
       764   0             -91.629439      7512.368      -20294.874     -25400.407      68232.385      6679.4489     -1478.183      -11410.386      8.5047248      7.3653067      44.999951      2818.7927    
       765   0             -92.046881      4347.8681     -29241.397     -27255.459      69540.461      3060.3328     -3979.6826     -12301.205      8.5047248      7.3653067      44.999951      2818.7927    
       766   0             -92.494867      3179.5495     -30369.357     -27564.474      67472.48       2049.9374     -2152.5909     -11333.794      8.5047248      7.3653067      44.999951      2818.7927    
       767   0             -92.946279      2652.3382     -30799.104     -27648.214      66404.333      1512.7601     -1504.1731     -10743.655      8.5047248      7.3653067      44.999951      2818.7927    
       768   0             -93.407799      3870.2602     -29123.064     -27117.766      67851.611      1310.089      -1208.2922     -11342.319      8.5047248      7.3653067      44.999951      2818.7927    
       769   0             -93.879399      7924.4728     -18588.98      -24021.589      66383.987     -4882.4967      506.92182     -11305.535      8.5047248      7.3653067      44.999951      2818.7927    
       770   0             -94.320872      9270.278      -22199.258     -24875.57       74885.663     -2632.1945      7158.1903     -14291.003      8.5047248      7.3653067      44.999951      2818.7927    
       771   0             -94.836221      3908.6712     -28766.732     -26292.114      66784.859      736.84617     -230.74211     -10639.504      8.5047248      7.3653067      44.999951      2818.7927    
       772   0             -95.354359      4534.4059     -27985.056     -25776.358      67364.632      620.31606     -105.68068     -10831.642      8.5047248      7.3653067      44.999951      2818.7927    
       773   0             -95.890938      7024.9231     -24859.25      -24694.201      70628.22       804.94489     -575.5943      -12281.518      8.5047248      7.3653067      44.999951      2818.7927    
       774   0             -96.443344      5406.1428     -26874.493     -24866.963      67959.885      736.11314     -89.583397     -11157.486      8.5047248      7.3653067      44.999951      2818.7927    
       775   0             -97.021227      8360.2905     -23228.997     -23637.622      71947.491      146.26009      1110.4426     -12949.541      8.5047248      7.3653067      44.999951      2818.7927    
       776   0             -97.618976      6550.8793     -25539.681     -23824.14       69016.459      709.38332     -152.02068     -11512.664      8.5047248      7.3653067      44.999951      2818.7927    
       777   0             -98.223739      10521.244     -20695.758     -22238.679      74498.169      2710.1374     -4581.9979     -13974.81       8.5047248      7.3653067      44.999951      2818.7927    
       778   0             -98.83116       8271.5789     -23589.955     -22565.191      70969.883      480.09014     -76.694026     -12192.809      8.5047248      7.3653067      44.999951      2818.7927    
       779   0             -99.276066      65143.217      110318.22      9373.4153      75738.017     -63960.75       19325.502     -21159.153      8.5047248      7.3653067      44.999951      2818.7927    
       780   0             -99.921276      78047.279      137286.93      15344.816      81510.093      32379.263     -4346.995      -24718.617      8.5047248      7.3653067      44.999951      2818.7927    
       781   0             -100.6584       17943.842     -12120.83      -18417.19       84369.546     -4475.123       9620.4116     -17620.205      8.5047248      7.3653067      44.999951      2818.7927    
       782   0             -100.69948      81841.565      147808.38      18039.558      79676.759     -79629.564      24810.824     -23944.777      8.5047248      7.3653067      44.999951      2818.7927    
       783   0             -100.83072      70379.265      117297.44      10766.675      83073.679      60685.635     -12729.135     -23402.713      8.5047248      7.3653067      44.999951      2818.7927    
       784   0             -100.97018      23803.516     -4291.6217     -16665.066      92367.236     -5253.1131      11475.724     -20579.215      8.5047248      7.3653067      44.999951      2818.7927    
Loop time of 0.0466805 on 6 procs for 100 steps with 112 atoms

528.4% CPU use with 1 MPI tasks x 6 OpenMP threads

Minimization stats:
  Stopping criterion = max iterations
  Energy initial, next-to-last, final = 
     -74.9582478030005  -100.830719135751  -100.970175801953
  Force two-norm initial, final = 6.7162656 30.482785
  Force max component initial, final = 1.0357245 11.216897
  Final line search alpha, max atom move = 8.1661544e-05 0.00091598914
  Iterations, force evaluations = 100 109

MPI task timing breakdown:
Section |  min time  |  avg time  |  max time  |%varavg| %total
---------------------------------------------------------------
Pair    | 0.038393   | 0.038393   | 0.038393   |   0.0 | 82.25
Neigh   | 0.00011892 | 0.00011892 | 0.00011892 |   0.0 |  0.25
Comm    | 0.0016181  | 0.0016181  | 0.0016181  |   0.0 |  3.47
Output  | 0.005085   | 0.005085   | 0.005085   |   0.0 | 10.89
Modify  | 0.00091376 | 0.00091376 | 0.00091376 |   0.0 |  1.96
Other   |            | 0.0005521  |            |       |  1.18

Nlocal:            112 ave         112 max         112 min
Histogram: 1 0 0 0 0 0 0 0 0 0
Nghost:           1008 ave        1008 max        1008 min
Histogram: 1 0 0 0 0 0 0 0 0 0
Neighs:              0 ave           0 max           0 min
Histogram: 1 0 0 0 0 0 0 0 0 0
FullNghs:         3884 ave        3884 max        3884 min
Histogram: 1 0 0 0 0 0 0 0 0 0

Total # of neighbors = 3884
Ave neighs/atom = 34.678571
Neighbor list builds = 1
Dangerous builds = 0

# Obtain new stress tensor

variable tmp equal pe
variable e1 equal ${tmp}
variable e1 equal -100.970175801953
variable tmp equal press
variable p1 equal ${tmp}
variable p1 equal 23803.5158097402
variable tmp equal pxx
variable pxx1 equal ${tmp}
variable pxx1 equal -4291.62173243654
variable tmp equal pyy
variable pyy1 equal ${tmp}
variable pyy1 equal -16665.0664529332
variable tmp equal pzz
variable pzz1 equal ${tmp}
variable pzz1 equal 92367.2356145904
variable tmp equal pxy
variable pxy1 equal ${tmp}
variable pxy1 equal -5253.11309496954
variable tmp equal pxz
variable pxz1 equal ${tmp}
variable pxz1 equal 11475.7241283406
variable tmp equal pyz
variable pyz1 equal ${tmp}
variable pyz1 equal -20579.2154096443

# Compute elastic constant from pressure tensor

variable C1pos equal ${d1}
variable C1pos equal -4163641.10534128
variable C2pos equal ${d2}
variable C2pos equal -2926396.31150534
variable C3pos equal ${d3}
variable C3pos equal -2477058.10828044
variable C4pos equal ${d4}
variable C4pos equal 2057921.54096437
variable C5pos equal ${d5}
variable C5pos equal -1147572.41283406
variable C6pos equal ${d6}
variable C6pos equal 525215.649658873

# Combine positive and negative

variable C1${dir} equal 0.5*(${C1neg}+${C1pos})
variable C16 equal 0.5*(${C1neg}+${C1pos})
variable C16 equal 0.5*(2934139.04512026+${C1pos})
variable C16 equal 0.5*(2934139.04512026+-4163641.10534128)
variable C2${dir} equal 0.5*(${C2neg}+${C2pos})
variable C26 equal 0.5*(${C2neg}+${C2pos})
variable C26 equal 0.5*(2682836.59737803+${C2pos})
variable C26 equal 0.5*(2682836.59737803+-2926396.31150534)
variable C3${dir} equal 0.5*(${C3neg}+${C3pos})
variable C36 equal 0.5*(${C3neg}+${C3pos})
variable C36 equal 0.5*(1240160.19536856+${C3pos})
variable C36 equal 0.5*(1240160.19536856+-2477058.10828044)
variable C4${dir} equal 0.5*(${C4neg}+${C4pos})
variable C46 equal 0.5*(${C4neg}+${C4pos})
variable C46 equal 0.5*(-1446549.18778598+${C4pos})
variable C46 equal 0.5*(-1446549.18778598+2057921.54096437)
variable C5${dir} equal 0.5*(${C5neg}+${C5pos})
variable C56 equal 0.5*(${C5neg}+${C5pos})
variable C56 equal 0.5*(-121393.857686232+${C5pos})
variable C56 equal 0.5*(-121393.857686232+-1147572.41283406)
variable C6${dir} equal 0.5*(${C6neg}+${C6pos})
variable C66 equal 0.5*(${C6neg}+${C6pos})
variable C66 equal 0.5*(94530.2630332368+${C6pos})
variable C66 equal 0.5*(94530.2630332368+525215.649658873)

# Delete dir to make sure it is not reused

variable dir delete

# Output final values

variable C11all equal ${C11}
variable C11all equal 4380302.08258034
variable C22all equal ${C22}
variable C22all equal 436427.811984045
variable C33all equal ${C33}
variable C33all equal -297534.257161615

variable C12all equal 0.5*(${C12}+${C21})
variable C12all equal 0.5*(1557122.87054386+${C21})
variable C12all equal 0.5*(1557122.87054386+1021434.68356846)
variable C13all equal 0.5*(${C13}+${C31})
variable C13all equal 0.5*(1882555.690458+${C31})
variable C13all equal 0.5*(1882555.690458+251137.86944852)
variable C23all equal 0.5*(${C23}+${C32})
variable C23all equal 0.5*(430596.776622535+${C32})
variable C23all equal 0.5*(430596.776622535+1690387.09410074)

variable C44all equal ${C44}
variable C44all equal 42931.022606335
variable C55all equal ${C55}
variable C55all equal -1246707.65640555
variable C66all equal ${C66}
variable C66all equal 309872.956346055

variable C14all equal 0.5*(${C14}+${C41})
variable C14all equal 0.5*(297916.29401092+${C41})
variable C14all equal 0.5*(297916.29401092+-380736.48234742)
variable C15all equal 0.5*(${C15}+${C51})
variable C15all equal 0.5*(5544198.78453843+${C51})
variable C15all equal 0.5*(5544198.78453843+731810.327949458)
variable C16all equal 0.5*(${C16}+${C61})
variable C16all equal 0.5*(-614751.03011051+${C61})
variable C16all equal 0.5*(-614751.03011051+-2060072.71985195)

variable C24all equal 0.5*(${C24}+${C42})
variable C24all equal 0.5*(87864.1916587602+${C42})
variable C24all equal 0.5*(87864.1916587602+-817992.237999305)
variable C25all equal 0.5*(${C25}+${C52})
variable C25all equal 0.5*(1086073.07831299+${C52})
variable C25all equal 0.5*(1086073.07831299+394436.00039736)
variable C26all equal 0.5*(${C26}+${C62})
variable C26all equal 0.5*(-121779.857063655+${C62})
variable C26all equal 0.5*(-121779.857063655+-222578.878216242)

variable C34all equal 0.5*(${C34}+${C43})
variable C34all equal 0.5*(4073.07595646498+${C43})
variable C34all equal 0.5*(4073.07595646498+-42576.6654800451)
variable C35all equal 0.5*(${C35}+${C53})
variable C35all equal 0.5*(-6549.34333771502+${C53})
variable C35all equal 0.5*(-6549.34333771502+2220496.5717112)
variable C36all equal 0.5*(${C36}+${C63})
variable C36all equal 0.5*(-618448.95645594+${C63})
variable C36all equal 0.5*(-618448.95645594+-6789079.28125415)

variable C45all equal 0.5*(${C45}+${C54})
variable C45all equal 0.5*(-368517.513172285+${C54})
variable C45all equal 0.5*(-368517.513172285+199017.881620812)
variable C46all equal 0.5*(${C46}+${C64})
variable C46all equal 0.5*(305686.176589195+${C64})
variable C46all equal 0.5*(305686.176589195+-228521.27663651)
variable C56all equal 0.5*(${C56}+${C65})
variable C56all equal 0.5*(-634483.135260146+${C65})
variable C56all equal 0.5*(-634483.135260146+5558553.79303031)

print "C11: ${C11}"
C11: 4380302.08258034
print "C12: ${C12}"
C12: 1557122.87054386
print "C44: ${C44}"
C44: 42931.022606335
Total wall time: 0:00:01
