LAMMPS (7 Feb 2024 - Development - patch_7Feb2024_update1-197-g554f53decb)
  using 6 OpenMP thread(s) per MPI task
using multi-threaded neighbor list subroutines
  using 6 OpenMP thread(s) per MPI task
using multi-threaded neighbor list subroutines
Reading data file ...
  triclinic box = (0 0 0) to (3.0171 3.0171 15.7082) with tilt (0 0 0)
  1 by 1 by 1 MPI processor grid
  reading atoms ...
  4 atoms
  read_data CPU = 0.001 seconds
Replication is creating a 4x4x4 = 64 times larger system...
  triclinic box = (0 0 0) to (12.0684 12.0684 62.8328) with tilt (0 0 0)
  1 by 1 by 1 MPI processor grid
  256 atoms
  replicate CPU = 0.001 seconds
Switching to 'neigh_modify every 1 delay 0 check yes' setting during minimization
Last active /omp style is pair_style tersoff/omp
Neighbor list info ...
  update: every = 1 steps, delay = 0 steps, check = yes
  max neighbors/atom: 2000, page size: 100000
  master list distance cutoff = 7.240189
  ghost atom cutoff = 7.240189
  binsize = 3.6200945, bins = 4 4 18
  1 neighbor lists, perpetual/occasional/extra = 1 0 0
  (1) pair tersoff/omp, perpetual
      attributes: full, newton on, omp
      pair build: full/bin/atomonly/omp
      stencil: full/bin/3d
      bin: standard
Setting up cg style minimization ...
  Unit style    : metal
  Current step  : 0
WARNING: Energy due to 3 extra global DOFs will be included in minimizer energies
 (src/min.cpp:219)
Per MPI rank memory allocation (min/avg/max) = 8.658 | 8.658 | 8.658 Mbytes
   Step          Temp          Press          TotEng         Volume         Cella          Cellc     
         0   0              5233953.7      14557.109      9151.3635      12.0684        62.8328      
        10   0              4970952.4      13910.781      9311.2348      12.113466      63.461128    
        20   0              4715570.7      13291.076      9473.029       12.158742      64.089456    
        30   0              4467973.7      12697.627      9636.6417      12.204149      64.717784    
        40   0              4229958.2      12129.939      9801.9842      12.249623      65.346112    
        50   0              4000435.1      11587.419      9968.9812      12.295111      65.97444     
        60   0              3779737.4      11069.525      10137.528      12.340543      66.602768    
        70   0              3568307.7      10575.626      10307.524      12.385858      67.231096    
        80   0              3366519.1      10105.004      10478.879      12.431003      67.859424    
        90   0              3174622.9      9656.8602      10651.509      12.475931      68.487752    
       100   0              2992886.1      9230.3272      10825.343      12.520606      69.11608     
       110   0              2821190.5      8824.4753      11000.312      12.564993      69.744408    
       120   0              2659283.7      8438.3756      11176.363      12.60907       70.372736    
       130   0              2507051.7      8071.073       11353.458      12.652824      71.001064    
       140   0              2363821.3      7721.6392      11531.566      12.696245      71.629392    
       150   0              2229142.6      7389.188       11710.655      12.739325      72.25772     
       160   0              2102674.2      7072.862       11890.702      12.782061      72.886048    
       170   0              1985142.2      6771.7807      12071.705      12.82446       73.514376    
       180   0              1876470.6      6484.8401      12253.781      12.866591      74.142704    
       190   0              1774209.4      6211.2494      12436.966      12.908481      74.771032    
       200   0              1679447.4      5950.2681      12621.308      12.950163      75.39936     
       210   0              1618990.8      5699.5111      12807.504      12.991943      76.027688    
       220   0              1572138.8      5454.2824      12997.203      13.034214      76.656016    
       230   0              1523986.4      5214.2922      13190.541      13.076953      77.284344    
       240   0              1474412.3      4979.7811      13387.443      13.120124      77.912672    
       250   0              1436019.8      4750.3818      13588.047      13.163913      78.541       
       260   0              1400860.9      4524.1835      13793.171      13.209191      79.169328    
       270   0              1361785.7      4301.6301      14002.722      13.255939      79.797656    
       280   0              1319187.4      4083.3737      14216.444      13.304007      80.425984    
       290   0              1272930.1      3870.1217      14434.062      13.35324       81.054312    
       300   0              1223391        3662.5942      14655.302      13.40349       81.68264     
       310   0              1171030.7      3461.4785      14879.875      13.4546        82.310968    
       320   0              1116387.5      3267.4075      15107.477      13.506417      82.939296    
       330   0              1072533.1      3080.5543      15337.468      13.558634      83.567624    
       340   0              1045699        2898.0384      15565.255      13.609182      84.195952    
       350   0              1012694.5      2719.839       15789.874      13.657663      84.82428     
       360   0              974192.14      2546.8475      16011.919      13.704382      85.452608    
       370   0              930912         2379.9171      16231.933      13.749613      86.080936    
       380   0              883599.97      2219.8382      16450.406      13.793601      86.709264    
       390   0              833011.04      2067.3203      16667.784      13.836568      87.337592    
       400   0              779917.18      1922.9752      16884.474      13.878708      87.96592     
       410   0              725092.51      1787.3024      17100.838      13.920197      88.594248    
       420   0              669308.82      1660.6789      17317.203      13.961189      89.222576    
       430   0              613332.75      1543.3511      17533.854      14.001818      89.850904    
       440   0              557922.7       1435.4285      17751.042      14.042198      90.479232    
       450   0              503822.29      1336.8805      17968.985      14.082429      91.10756     
       460   0              451747.97      1247.5355      18187.872      14.122596      91.735888    
       470   0              402369.93      1167.0832      18407.878      14.162772      92.364216    
       480   0              356288.49      1095.0826      18629.165      14.203018      92.992544    
       490   0              315056.03      1030.9036      18851.986      14.243459      93.620872    
       500   0              283056.73      973.34366      19077.492      14.284335      94.2492      
       510   0              255477.75      921.05883      19307.464      14.32561       94.877528    
       520   0              230713.78      873.46066      19542.216      14.367211      95.505856    
       530   0              214221.38      829.80426      19781.276      14.408801      96.134184    
       540   0              211329.89      787.58499      20019.196      14.4483        96.762512    
       550   0              217909.28      744.66909      20256.135      14.486465      97.39084     
       560   0              233548.23      699.32898      20492.789      14.523933      98.019168    
       570   0              261927.92      649.24664      20729.134      14.560739      98.647496    
       580   0              282542.12      592.91882      20964.892      14.596818      99.275824    
       590   0              184840.42      541.75562      21195.78       14.630717      99.904152    
       600   0              120995.31      511.12598      21409.714      14.65835       100.53248    
       610   0              109292.47      486.89754      21611.521      14.681488      101.16081    
       620   0              103617.76      463.71908      21806.792      14.702112      101.78914    
       630   0              97784.499      441.43233      21995.598      14.720301      102.41746    
       640   0              92168.066      420.01121      22177.771      14.736052      103.04579    
       650   0              86766.793      399.41404      22353.195      14.749379      103.67412    
       660   0              81576.864      379.60221      22521.756      14.760294      104.30245    
       670   0              76593.001      360.54004      22683.333      14.768807      104.93078    
       680   0              71809.015      342.19449      22837.795      14.774921      105.5591     
       690   0              67218.226      324.53485      22984.993      14.778634      106.18743    
       700   0              70809.197      306.90476      23128.635      14.781169      106.81576    
       710   0              74742.646      288.35886      23275.563      14.784714      107.44409    
       720   0              77718.441      269.06859      23424.869      14.788964      108.07242    
       730   0              79865.124      249.20382      23575.771      14.793663      108.70074    
       740   0              81216.271      228.92863      23727.653      14.798612      109.32907    
       750   0              81812.448      208.40327      23879.988      14.803644      109.9574     
       760   0              81699.851      187.78197      24032.31       14.808614      110.58573    
       770   0              80929.083      167.21117      24184.194      14.813395      111.21406    
       780   0              79554.037      146.82811      24335.237      14.817867      111.84238    
       790   0              77630.884      126.75969      24485.047      14.821918      112.47071    
       800   0              75217.141      107.12163      24633.23       14.825439      113.09904    
       810   0              72370.823      88.017828      24779.382      14.828317      113.72737    
       820   0              69149.668      69.539872      24923.072      14.830437      114.3557     
       830   0              65610.444      51.766773      25063.835      14.831674      114.98402    
       840   0              61808.309      34.764807      25201.158      14.831892      115.61235    
       850   0              57796.243      18.587475      25334.462      14.830941      116.24068    
       860   0              53624.535      3.2755421      25463.084      14.828646      116.86901    
       870   0              49340.304     -11.142872      25586.253      14.824805      117.49734    
       880   0              44987.067     -24.652209      25703.056      14.819181      118.12566    
       890   0              40604.306     -37.24944       25812.397      14.811487      118.75399    
       900   0              36227.024     -48.944181      25912.939      14.80137       119.38232    
       910   0              31885.253     -59.759088      26003.025      14.788393      120.01065    
       920   0              27603.423     -69.730719      26080.559      14.772002      120.63898    
       930   0              23399.522     -78.911239      26142.843      14.751476      121.2673     
       940   0              19283.83      -87.371574      26186.319      14.72586       121.89563    
       950   0              15791.328     -95.223651      26207.069      14.694105      122.52396    
       960   0              12699.449     -102.63594      26204.359      14.656047      123.15229    
       970   0              9537.8524     -109.71877      26172.667      14.610182      123.78062    
       980   0              6140.782      -116.62365      26101.182      14.553525      124.40894    
       990   0              2643.1036     -123.61851      25973.783      14.481586      125.03727    
      1000   0             -1068.7929     -131.17751      25764.75       14.387125      125.6656     
      1010   0             -5077.6416     -139.50993      25456.28       14.268545      126.24318    
      1020   0             -8669.0224     -147.5114       25112.185      14.1503        126.65905    
      1030   0             -11853         -155.67201      24746.811      14.031883      126.9631     
      1040   0             -14638.345     -164.23909      24368.329      13.91318       127.19301    
      1050   0             -17026.916     -173.31374      23982.27       13.794229      127.37371    
      1060   0             -18993.397     -182.91939      23592.481      13.675059      127.52295    
      1070   0             -20505.874     -193.03244      23201.765      13.555694      127.6541     
      1080   0             -21524.288     -203.60019      22812.219      13.436135      127.77779    
      1090   0             -22011.326     -214.55063      22425.474      13.316361      127.90304    
      1100   0             -21986.661     -225.80272      22042.933      13.196416      128.03751    
      1110   0             -21489.671     -237.28234      21665.628      13.076307      128.18766    
      1120   0             -20583.518     -248.92516      21294.306      12.956029      128.35881    
      1130   0             -19355.442     -260.67965      20929.45       12.835571      128.55513    
      1140   0             -17905.352     -272.50596      20571.323      12.714929      128.77944    
      1150   0             -16333.487     -284.35883      20220.376      12.594245      129.03292    
      1160   0             -14725.649     -296.20704      19876.542      12.473561      129.31549    
      1170   0             -13147.53      -308.02333      19539.475      12.352877      129.62605    
      1180   0             -11644.184     -319.77727      19208.731      12.232193      129.96265    
      1190   0             -10232.795     -331.43321      18883.836      12.111509      130.32278    
      1200   0             -8911.7594     -342.93997      18564.566      11.990825      130.70368    
      1210   0             -7687.4152     -354.25889      18250.362      11.870141      131.10306    
      1220   0             -6582.2524     -365.35503      17940.652      11.749457      131.51853    
      1230   0             -5581.5756     -376.18569      17635.078      11.628773      131.94752    
      1240   0             -4665.2207     -386.70363      17333.367      11.508089      132.38779    
      1250   0             -3812.4322     -396.85803      17035.335      11.387405      132.83759    
      1260   0             -3004.8308     -406.59505      16740.885      11.266721      133.29569    
      1270   0             -3408.5558     -415.85021      16449.094      11.146037      133.75452    
      1280   0             -4174.8099     -424.54389      16156.063      11.025353      134.18296    
      1290   0             -4438.4894     -432.67491      15862.85       10.904669      134.58762    
      1300   0             -4908.0966     -440.2171       15570.091      10.783985      134.97232    
      1310   0             -5009.1655     -447.127        15277.532      10.663301      135.33409    
      1320   0             -4655.2752     -453.35395      14986.298      10.542617      135.68143    
      1330   0             -3218.3799     -458.67663      14701.784      10.421933      136.02456    
      1340   0             -1422.6279     -462.87886      14424.192      10.301249      136.39283    
      1350   0              119.75727     -465.84127      14153.943      10.180565      136.81201    
      1360   0              338.24201     -467.52291      13895.89       10.059881      137.34406    
      1370   0             -154.90412     -471.30848      13786.816      10.033414      136.96082    
      1380   0             -225.36964     -475.68323      13720.807      10.032391      136.3325     
      1390   0             -336.00933     -480.17438      13655.918      10.031863      135.70417    
      1400   0             -153.20595     -484.67474      13586.227      10.02957       135.07584    
      1410   0             -52.821419     -489.28761      13518.735      10.028084      134.44751    
      1420   0             -553.27166     -493.83251      13461.698      10.030489      133.81918    
      1430   0             -976.55256     -498.30938      13404.267      10.032787      133.19086    
      1440   0             -733.11068     -502.5869       13334.901      10.030625      132.56253    
      1450   0             -840.95955     -506.94788      13272.427      10.031071      131.9342     
      1460   0             -2392.1399     -512.03939      13228.996      10.036846      131.35714    
      1470   0              50.204067     -516.15181      13144.395      10.027557      130.76487    
      1480   0             -1947.2534     -521.02997      13112.274      10.035769      130.24148    
      1490   0              53.306627     -524.85701      13039.029      10.029611      129.68226    
      1500   0             -2944.3023     -529.84004      12998.516      10.038433      129.14037    
      1510   0             -11147.886     -531.55714      12713.106      9.9563178      128.86111    
      1520   0             -21368.494     -535.37038      12402.001      9.8465727      128.67598    
      1530   0             -29807.875     -541.38623      12086.225      9.7295105      128.49266    
      1540   0             -49657.005     -549.3021       11793.424      9.6254787      128.33697    
      1550   0             -126982.21     -567.96231      11597.696      9.5909599      128.28291    
      1560   0             -196840.95     -606.13207      11429.385      9.5761431      128.2589     
      1570   0             -228365.7      -658.70552      11267.427      9.565674       128.24299    
      1580   0             -206366.19     -713.78662      11107.805      9.556471       128.23286    
      1590   0             -142261.22     -758.06528      10944.827      9.5433941      128.23183    
      1600   0             -76530.889     -785.01962      10760.647      9.5093657      128.25577    
      1610   0             -89391.875     -806.83683      10554.1        9.3956445      128.32446    
      1620   0             -114879.97     -837.86185      10409.512      9.2749605      128.37319    
      1630   0             -95639.786     -874.45822      10278.808      9.1542765      128.42539    
      1640   0             -29158.986     -905.23722      10161.422      9.0335925      128.5092     
      1650   0              40742.27      -923.01274      10079.896      8.9129085      128.72591    
      1660   0              37784.524     -930.06144      10100.148      8.8443008      129.32877    
      1670   0              23240.126     -933.14769      10131.272      8.8315127      129.9571     
      1680   0              9981.1416     -934.88575      10161.811      8.8233831      130.58543    
      1690   0              13030.585     -936.21085      10156.455      8.8058083      131.01721    
      1700   0              2050.0794     -940.59169      10154.105      8.8212761      130.48824    
      1710   0             -108.48541     -942.80627      10143.587      8.8198585      130.37266    
      1720   0             -4325.2423     -944.1911       10140.827      8.8227979      130.21305    
      1730   0             -7552.9776     -945.64101      10137.895      8.8307986      130.09216    
      1740   0             -3869.3653     -946.5607       10126.242      8.8411569      129.89547    
      1750   0              6335.7425     -948.27113      10098.699      8.8152111      129.69273    
      1760   0             -2792.6312     -948.92171      10112.604      8.8243427      129.75638    
      1770   0              2552.6702     -949.63696      10099.373      8.8270932      129.6428     
      1780   0              6632.5914     -950.4193       10086.513      8.8143405      129.5561     
      1790   0             -2755.6115     -951.08156      10100.663      8.8231996      129.61618    
      1800   0              2475.8011     -951.82197      10087.319      8.8262744      129.50295    
      1810   0              7005.1282     -952.63806      10073.134      8.8127517      129.41307    
      1820   0             -2795.1721     -953.33259      10087.826      8.8219826      129.47311    
      1830   0              2576.8249     -954.12137      10073.867      8.8249556      129.3569     
      1840   0              7064.1651     -954.98686      10059.246      8.8108516      129.26436    
      1850   0             -2896.1365     -955.72193      10074.158      8.8208196      129.32258    
      1860   0              2848.8503     -956.56413      10059.138      8.823371       129.20306    
      1870   0              6719.0827     -957.4684       10045.404      8.8094231      129.10888    
      1880   0             -3019.5375     -958.2293       10059.932      8.8196225      129.16837    
      1890   0              3107.8219     -959.07458      10044.188      8.8219073      129.04952    
      1900   0              6927.9918     -959.97885      10031.576      8.8084123      128.95145    
      1910   0             -3183.5294     -960.70572      10046.722      8.8181641      129.02833    
      1920   0              3395.5382     -961.51343      10031.848      8.820509       128.92616    
      1930   0              6501.0754     -962.3558       10021.059      8.8077548      128.83491    
      1940   0             -3354.7771     -963.06322      10035.676      8.8166252      128.91921    
      1950   0              3581.365      -963.81423      10020.324      8.8190618      128.82671    
      1960   0              5096.0953     -964.59957      10012.937      8.8083158      128.73829    
      1970   0             -3976.5257     -965.32612      10025.76       8.8153555      128.82826    
      1980   0              3920.1478     -966.03687      10008.786      8.8175167      128.72968    
      1990   0              4797.9621     -966.86804      10002.327      8.8066748      128.63509    
      2000   0             -3890.653      -967.63913      10014.556      8.8138998      128.71633    
      2010   0              4021.4759     -968.38177      9997.1468      8.8157399      128.61332    
      2020   0              5343.3351     -969.27243      9989.3948      8.8037318      128.51982    
      2030   0             -3297.5872     -970.09179      10002.299      8.8122777      128.59237    
      2040   0              4034.7375     -970.96958      9984.8744      8.8138425      128.48474    
      2050   0              5516.0762     -972.01322      9975.9315      8.8007003      128.40689    
      2060   0             -3080.717      -972.97059      9989.6057      8.8107067      128.47747    
      2070   0              4294.7594     -973.94122      9972.0358      8.8123719      128.37656    
      2080   0              5762.325      -975.05424      9963.5337      8.7996157      128.30146    
      2090   0             -3110.9528     -976.04322      9977.2875      8.8095461      128.3728     
      2100   0              4194.9484     -977.02286      9959.2892      8.8114229      128.2731     
      2110   0              6135.7466     -978.15207      9949.8696      8.7980866      128.19645    
      2120   0             -3072.2188     -979.15521      9963.5206      8.8078126      128.26923    
      2130   0              4137.2225     -980.16486      9944.4171      8.8096465      128.16744    
      2140   0              6494.0542     -981.31009      9933.91        8.7958498      128.08652    
      2150   0             -3059.5256     -982.32125      9947.8378      8.8056905      128.1619     
      2160   0              4251.9915     -983.34579      9928.3211      8.8074506      128.06084    
      2170   0              6591.6672     -984.4972       9917.6993      8.7936209      127.97751    
      2180   0             -3096.2275     -985.5224       9931.6072      8.8034122      128.05389    
      2190   0              4359.3285     -986.55549      9911.7045      8.8052309      127.95128    
      2200   0              6230.1689     -987.75186      9902.2076      8.792479       127.86006    
      2210   0             -6124.3996     -989.23871      9919.885       8.8009746      128.0021     
      2220   0             -6663.1615     -991.16217      9911.2346      8.8012379      127.89036    
      2230   0             -2893.1943     -992.7262       9896.1476      8.7972674      127.74828    
      2240   0             -4858.3196     -996.02708      9883.3511      8.8018556      127.56455    
      2250   0              1542.4496     -998.32538      9861.4177      8.7960088      127.51175    
      2260   0             -3988.2256     -1000.9281      9858.978       8.8049075      127.42761    
      2270   0             -10643.6       -1002.6926      9865.7427      8.7979324      127.42349    
      2280   0              1865.1433     -1004.0573      9835.7123      8.7919796      127.26271    
      2290   0             -1445.983      -1005.9574      9832.7508      8.8003405      127.24874    
      2300   0             -11346.616     -1008.3213      9843.7039      8.7943599      127.23229    
      2310   0              1698.0227     -1010.2285      9810.6637      8.7880487      127.05522    
      2320   0             -2246.7695     -1022.3492      9773.7207      8.7833031      126.84806    
      2330   0             -190.27859     -1025.5042      9761.1297      8.7696324      126.75802    
      2340   0             -13596.4       -1028.0396      9776.9768      8.7822722      126.60168    
      2350   0              1044.4078     -1030.2764      9742.5269      8.7671832      126.62269    
      2360   0             -7749.9155     -1032.7363      9748.4033      8.7894105      126.52072    
      2370   0             -4434.3213     -1035.7814      9737.6848      8.7672444      126.60774    
      2380   0             -85.565755     -1037.9359      9723.4598      8.7611674      126.60018    
      2390   0              1647.2332     -1039.2843      9715.3323      8.7622827      126.45504    
      2400   0              4438.2456     -1040.9682      9704.1134      8.7629249      126.28704    
      2410   0              10850.206     -1043.1907      9704.6092      8.7532389      126.34957    
      2420   0              2412.1588     -1045.1945      9701.8619      8.7581302      126.47338    
      2430   0              78982.995     -1047.7879      9733.6343      8.7563613      126.4901     
      2440   0              12796.781     -1050.5046      9718.1558      8.7540008      126.56605    
      2450   0              4291.1854     -1053.3517      9718.1544      8.7555204      126.52079    
      2460   0              581.83576     -1055.6219      9704.4299      8.7517328      126.44869    
      2470   0              12137.473     -1058.6814      9712.865       8.7535221      126.48766    
      2480   0              24830.073     -1060.3698      9669.7416      8.746266       126.32325    
      2490   0             -1851.0271     -1062.0374      9691.2715      8.7530156      126.40518    
      2500   0             -5496.2647     -1063.595       9699.6442      8.7516676      126.42886    
      2510   0              17489.103     -1065.1319      9698.0328      8.7516631      126.31109    
      2520   0              1704.0407     -1067.4427      9683.9871      8.7410374      126.38983    
      2530   0              18553.354     -1069.7716      9694.3734      8.7482385      126.34158    
      2540   0             -3040.6955     -1071.5519      9691.7773      8.7481963      126.30975    
      2550   0             -5813.2261     -1073.5097      9697.313       8.7566913      126.33586    
      2560   0             -748.31151     -1076.1624      9694.238       8.7509803      126.34881    
      2570   0             -5032.9603     -1078.2703      9701.7911      8.7517548      126.33652    
      2580   0              1899.8271     -1080.9544      9693.2427      8.7525693      126.30179    
      2590   0              3923.8        -1082.41        9685.7285      8.7426496      126.23054    
      2600   0              3909.0756     -1085.5564      9687.1396      8.7423247      126.282      
      2610   0             -4313.881      -1088.4126      9703.9674      8.750236       126.32189    
      2620   0              427.45907     -1090.2904      9688.6606      8.752525       126.24531    
      2630   0             -3691.3789     -1093.3163      9707.3352      8.7495911      126.35773    
      2640   0              22432.247     -1095.8696      9709.1709      8.7663635      126.26049    
      2650   0             -3883.8362     -1098.023       9706.6771      8.7514959      126.44765    
      2660   0              32206.57      -1100.1889      9704.4094      8.7620896      126.32448    
      2670   0             -7332.0301     -1102.2065      9717.5665      8.7532112      126.49067    
      2680   0             -9.8710634     -1105.8068      9715.851       8.7486542      126.67993    
      2690   0              9039.9604     -1107.8502      9730.847       8.7605415      126.71431    
      2700   0              4151.2853     -1110.8834      9722.0555      8.7383983      126.91037    
      2710   0              941.36233     -1112.6946      9726.8258      8.7456239      126.94596    
      2720   0             -4505.4519     -1116.7363      9742.7492      8.7471204      127.09631    
      2730   0             -2464.8726     -1118.5565      9754.3506      8.7492094      127.05828    
      2740   0              4923.7287     -1120.155       9733.6639      8.7429872      127.12974    
      2750   0              68457.734     -1123.0983      9757.0274      8.7452099      127.29393    
      2760   0              945.48124     -1124.7884      9775.3801      8.7526032      127.40365    
      2770   0              9843.0654     -1126.4789      9757.0881      8.7435437      127.45708    
      2780   0             -9664.42       -1128.8503      9787.1203      8.7531948      127.71359    
      2790   0             -4212.5195     -1131.2239      9785.2586      8.7500393      127.86234    
      2800   0              45098.832     -1132.9325      9771.9427      8.7527711      127.80142    
      2810   0             -1787.1919     -1136.0566      9798.5685      8.7453178      128.16953    
      2820   0              11160.462     -1137.2931      9802.4795      8.7468172      128.08618    
      2830   0             -7499.6919     -1139.7372      9824.4524      8.7524013      128.39496    
      2840   0             -313.06093     -1141.0916      9822.2738      8.7449289      128.45022    
      2850   0              2183.3961     -1143.1116      9825.9533      8.7450023      128.63127    
      2860   0              34885.774     -1144.8947      9810.1087      8.7389756      128.68888    
      2870   0              944.79606     -1146.4844      9842.8774      8.7496216      128.78981    
      2880   0              3940.2117     -1148.5044      9852.6379      8.7454692      129.04856    
      2890   0             -5106.0414     -1149.7973      9876.1121      8.7541834      129.09598    
      2900   0             -4498.3886     -1151.7514      9881.5487      8.7568744      129.31877    
      2910   0              16868.398     -1154.2576      9883.1327      8.7444892      129.56638    
      2920   0             -1582.6819     -1156.1119      9902.941       8.7475085      129.72366    
      2930   0             -1092.0943     -1158.0545      9906.6537      8.7442244      129.92992    
      2940   0              10947.011     -1159.7242      9898.3194      8.750897       130.01006    
      2950   0              8685.9969     -1161.4961      9909.1471      8.7429253      130.23789    
      2960   0              3488.6621     -1163.2658      9943.3199      8.7440073      130.34804    
      2970   0              9122.0861     -1165.2004      9920.655       8.7375159      130.61418    
      2980   0              14469.02      -1166.8174      9947.6552      8.7416381      130.6698     
      2990   0             -3988.5429     -1167.8098      9966.7362      8.7456407      130.78267    
      3000   0             -2774.4042     -1169.6066      9970.6483      8.7547107      131.04494    
      3010   0             -5588.5275     -1171.0541      9995.4205      8.7450221      131.1259     
      3020   0              7509.3951     -1171.656       9989.709       8.7403672      131.11662    
      3030   0              2922.6839     -1173.6413      9982.1809      8.7445822      131.4583     
      3040   0             -2361.7606     -1174.87        10002.539      8.7461344      131.50324    
      3050   0              5361.6167     -1176.7143      9997.7484      8.7337096      131.70655    
      3060   0             -1504.6156     -1179.2569      10024.072      8.7503092      132.02723    
      3070   0              7064.128      -1181.3249      10043.165      8.7385103      132.28453    
      3080   0              7630.4685     -1183.2635      10088.882      8.7515676      132.37695    
      3090   0              21792.43      -1184.7315      10047.337      8.7529482      132.53796    
      3100   0              2409.8803     -1186.1432      10063.647      8.7388729      132.7069     
      3110   0             -2223.809      -1187.6212      10083.092      8.7446059      132.96288    
      3120   0             -2147.9178     -1188.8161      10093.083      8.7398646      133.11004    
      3130   0              1133.5326     -1190.2967      10092.081      8.7417702      133.28121    
      3140   0             -3075.5738     -1191.2566      10109.159      8.7441368      133.39266    
      3150   0             -1273.5869     -1191.8217      10106.701      8.7428519      133.37562    
      3160   0             -133.33245     -1192.567       10109.856      8.7404622      133.50544    
      3170   0              626.32733     -1192.8834      10107.388      8.7435865      133.51482    
      3180   0              1999.5988     -1193.905       10112.901      8.7380767      133.6318     
      3190   0              3079.6537     -1195.2965      10118.709      8.7376942      133.7973     
      3200   0              1505.8265     -1196.0255      10146.223      8.7513925      133.84399    
      3210   0             -3746.3403     -1196.6924      10148.741      8.7408463      134.07008    
      3220   0             -8591.0526     -1198.5399      10195.494      8.7596465      134.25587    
      3230   0             -8184.5201     -1200.4567      10187.096      8.7506824      134.55741    
      3240   0              824.39948     -1202.619       10190.752      8.7433409      134.80302    
      3250   0              9569.4994     -1203.2689      10182.949      8.736012       134.80406    
      3260   0             -4971.6225     -1204.2203      10202.284      8.7524568      134.97367    
      3270   0             -4165.3746     -1205.5106      10216.582      8.7419479      135.16417    
      3280   0             -1962.1025     -1206.7672      10217.992      8.7445187      135.39235    
      3290   0             -4372.998      -1207.7199      10221.716      8.749391       135.51016    
      3300   0              1385.1968     -1209.0566      10204.462      8.7430776      135.72845    
      3310   0             -2861.1368     -1209.8016      10224.772      8.7461143      135.83032    
      3320   0             -4923.8159     -1211.2651      10252.413      8.7448467      136.0635     
      3330   0              2757.8849     -1212.1073      10213.528      8.7351908      136.31435    
      3340   0              6067.7575     -1214.1489      10224.524      8.7439504      136.59279    
      3350   0             -2086.9264     -1215.7044      10264.257      8.7528674      136.75686    
      3360   0             -3016.116      -1216.5026      10222.307      8.7455935      136.92488    
      3370   0             -2923.3052     -1217.4449      10239.182      8.7423955      137.06899    
      3380   0             -1631.943      -1218.5581      10214.192      8.7470475      137.22889    
      3390   0             -954.97226     -1219.4468      10203.702      8.7453425      137.3699     
      3400   0              1116.7542     -1220.3761      10198.947      8.7392894      137.57709    
      3410   0             -4739.744      -1221.2094      10210.683      8.7488005      137.69514    
      3420   0             -13226.954     -1222.2875      10236.526      8.7577489      137.93235    
      3430   0              9343.3437     -1223.3338      10187.714      8.750537       137.99996    
      3440   0             -2421.4195     -1224.6341      10191.484      8.7446233      138.30694    
      3450   0              1032.3311     -1225.6389      10184.017      8.7480059      138.39129    
      3460   0             -1910.337      -1226.4924      10182.806      8.7467472      138.54534    
      3470   0              3376.6589     -1227.7257      10165.769      8.7434277      138.76381    
      3480   0             -2706.0654     -1228.7161      10185.197      8.7466112      138.93918    
      3490   0              2894.6738     -1229.564       10199.002      8.7541678      139.03638    
      3500   0             -705.32177     -1230.6513      10180.471      8.7441142      139.2376     
      3510   0              26393.774     -1231.591       10171.525      8.739572       139.37176    
      3520   0              2735.1015     -1232.7124      10181.643      8.7459098      139.55067    
      3530   0             -1918.142      -1234.8408      10187.789      8.745313       139.97924    
      3540   0             -1305.1761     -1236.3533      10187.001      8.7445669      140.26398    
      3550   0             -3150.9529     -1237.1741      10194.925      8.7458712      140.31287    
      3560   0              1622.7628     -1238.1282      10192.89       8.739076       140.45528    
      3570   0              5200.1591     -1238.9151      10186.182      8.7391453      140.59876    
      3580   0             -8759.4756     -1240.107       10214.839      8.7517721      140.86004    
      3590   0             -320.19849     -1241.2431      10178.168      8.7521637      140.94765    
      3600   0              4618.2573     -1242.2989      10192.173      8.739842       141.09216    
      3610   0             -2054.9419     -1243.3035      10203.942      8.7417245      141.27206    
      3620   0              24479.781     -1244.664       10206.132      8.7415992      141.42295    
      3630   0              4543.8482     -1245.9242      10198.261      8.7541999      141.61608    
      3640   0              212.66167     -1247.6305      10205.425      8.7384244      141.97263    
      3650   0              23086.496     -1249.0813      10190.157      8.7336603      142.13312    
      3660   0             -8050.7725     -1250.1283      10227.727      8.7522255      142.4035     
      3670   0              1978.8142     -1251.6288      10204.655      8.7410547      142.50132    
      3680   0              234.54334     -1252.2913      10206.859      8.7456777      142.54877    
      3690   0              17973.254     -1253.6804      10201.7        8.7312381      142.78178    
      3700   0              4129.7512     -1255.6655      10238.948      8.7379135      143.03672    
      3710   0              1055.2283     -1256.8405      10225.153      8.7547782      143.19202    
      3720   0             -1124.21       -1257.8801      10227.046      8.7447806      143.36072    
      3730   0              5025.9243     -1258.8521      10220.614      8.739982       143.44821    
      3740   0              10725.116     -1260.2225      10222.14       8.7443757      143.60755    
      3750   0             -3937.2201     -1261.5461      10244.081      8.7445759      143.81946    
      3760   0             -1003.801      -1263.1355      10241.464      8.7403016      144.05873    
      3770   0              19251.43      -1264.3604      10252.02       8.7424709      144.14644    
      3780   0             -1138.2956     -1265.4001      10248.695      8.7471325      144.30727    
      3790   0             -4312.0749     -1266.4217      10252.45       8.7448671      144.46823    
      3800   0              5202.4326     -1267.6323      10256.883      8.7359929      144.61643    
      3810   0             -12947.928     -1268.8818      10285.2        8.7597259      144.78494    
      3820   0              12638.671     -1270.6243      10257.198      8.7463753      144.9488     
      3830   0              5769.0825     -1272.163       10248.291      8.7433623      145.18429    
      3840   0             -349.56694     -1274.0777      10255.085      8.7368231      145.51346    
      3850   0             -2646.9346     -1276.3132      10265.006      8.74191        145.71219    
      3860   0             -780.221       -1277.4701      10259.451      8.7358632      145.86144    
      3870   0             -4357.6926     -1278.7674      10268.708      8.7402327      146.04316    
      3880   0             -6347.6467     -1280.4732      10274.419      8.7432667      146.29559    
      3890   0              12719.791     -1281.3506      10254.154      8.7309382      146.33293    
      3900   0              20204.36      -1282.158       10251.635      8.751581       146.39481    
      3910   0             -167.47239     -1283.8795      10263.788      8.7356472      146.79344    
      3920   0             -1301.1769     -1286.0068      10264.775      8.7390933      146.94614    
      3930   0              628.44109     -1287.0458      10264.536      8.7332702      147.09008    
      3940   0              3813.1638     -1288.2181      10260.602      8.7383751      147.16774    
      3950   0             -7861.9077     -1289.6336      10290.995      8.7378261      147.41       
      3960   0              4621.7521     -1290.5367      10267.996      8.7369592      147.45161    
      3970   0             -1302.7036     -1291.7528      10278.799      8.7287104      147.63393    
      3980   0              314.54568     -1292.8715      10278.399      8.7234657      147.7866     
      3990   0             -2606.585      -1293.8124      10279.802      8.7328457      147.86179    
      4000   0              485.00991     -1295.6146      10276.408      8.7320175      148.09371    
      4010   0             -6624.6849     -1297.3987      10296.85       8.7331416      148.3542     
      4020   0              10223.337     -1298.5787      10276.268      8.7220384      148.40265    
      4030   0             -10623.287     -1299.9942      10305.492      8.7392313      148.57524    
      4040   0              3978.6798     -1302.0332      10293.108      8.7352717      148.77886    
      4050   0              7310.1962     -1303.2825      10287.807      8.7437535      148.90292    
      4060   0              766.95608     -1304.3182      10281.361      8.7281323      149.07557    
      4070   0              5624.6411     -1305.3324      10276.062      8.7238582      149.16352    
      4080   0              2406.4695     -1306.5115      10293.259      8.72861        149.29581    
      4090   0             -5329.657      -1308.0763      10305.784      8.7313985      149.46557    
      4100   0              4526.8017     -1310.2215      10291.42       8.724917       149.7706     
      4110   0              14189.805     -1311.9235      10266.977      8.7100925      149.97404    
      4120   0             -572.84628     -1313.2168      10295.595      8.7313123      150.06112    
      4130   0             -1893.5042     -1315.1583      10304.7        8.7220701      150.35746    
      4140   0             -4600.3119     -1316.6824      10310.64       8.7265595      150.42948    
      4150   0              25318.996     -1317.8747      10290.293      8.7129747      150.52046    
      4160   0              91149.922     -1320.2566      10308.049      8.715763       150.74519    
      4170   0             -5377.554      -1321.8799      10328.661      8.719632       150.98584    
      4180   0             -1312.2117     -1323.5254      10325.412      8.7146376      151.20249    
      4190   0              865.39895     -1325.5409      10328.703      8.715022       151.48029    
      4200   0              34636.133     -1327.2642      10332.313      8.7215187      151.49948    
      4210   0             -5041.0931     -1328.6315      10349.706      8.7164582      151.73262    
      4220   0              17837.633     -1330.2621      10332.193      8.714147       151.93702    
      4230   0             -11306.798     -1331.3498      10375.909      8.7177749      152.08106    
      4240   0              4251.156      -1333.4791      10346.563      8.7033927      152.42267    
      4250   0              7556.1171     -1334.7933      10359.87       8.7121012      152.45728    
      4260   0              2683.4254     -1336.3843      10355.942      8.7109221      152.65147    
      4270   0              5037.5998     -1338.0617      10374.333      8.7026175      152.88068    
      4280   0             -3327.088      -1339.109       10382.314      8.7056996      153.01228    
      4290   0              7997.5577     -1340.5248      10370.326      8.7001095      153.11896    
      4300   0              2905.365      -1342.2201      10385.242      8.700464       153.36159    
      4310   0              1909.7787     -1343.2501      10380.508      8.6995296      153.50243    
      4320   0              1257.7642     -1345.5846      10409.654      8.7060928      153.7996     
      4330   0             -1713.7193     -1347.238       10406.286      8.6948045      154.05459    
      4340   0             -6239.6161     -1349.7469      10435.581      8.6884593      154.27529    
      4350   0              11230.157     -1351.5396      10429.83       8.6962095      154.37775    
      4360   0             -429.19715     -1353.3254      10419.008      8.6892463      154.69739    
      4370   0              943.68157     -1354.9691      10435.421      8.6929342      154.75003    
      4380   0              364.41613     -1356.211       10423.624      8.6861282      154.94852    
      4390   0              21431.859     -1358.1608      10447.731      8.6876583      154.94943    
      4400   0              1032.2934     -1359.3769      10442.119      8.6856919      155.1261     
      4410   0              12464.857     -1360.6457      10430.959      8.6795408      155.19571    
      4420   0             -553.35058     -1362.6254      10451.463      8.6820762      155.43606    
      4430   0             -3149.3289     -1363.5329      10451.461      8.6750278      155.56204    
      4440   0             -8527.4371     -1364.4759      10478.387      8.6791914      155.581      
      4450   0             -5450.77       -1365.48        10462.929      8.6764417      155.76495    
      4460   0             -2131.8355     -1366.6895      10461.726      8.6758678      155.81       
      4470   0              4194.171      -1367.7902      10459.589      8.6610576      155.97342    
      4480   0              7679.3075     -1369.2831      10443.019      8.6437722      156.10017    
      4490   0              1935.6114     -1370.405       10456.366      8.6476912      156.13408    
      4500   0              4471.9678     -1371.2826      10453.511      8.6492596      156.23304    
      4510   0             -6286.8394     -1372.172       10482.3        8.6607859      156.29898    
      4520   0             -6230.128      -1374.6567      10481.47       8.6425555      156.67361    
      4530   0              14233.088     -1375.9545      10467.592      8.6445669      156.58051    
      4540   0             -3453.3943     -1377.2657      10471.935      8.63349        156.80445    
      4550   0             -3251.6935     -1378.4238      10465.263      8.617837       156.9099     
      4560   0             -3207.1211     -1379.2397      10467.891      8.6229296      156.93141    
      4570   0             -789.3045      -1380.6433      10485.262      8.626703       156.95421    
      4580   0             -1989.4303     -1381.2562      10459.458      8.6059449      157.033      
      4590   0              20988.107     -1382.2836      10427.183      8.5792442      157.13087    
      4600   0             -6140.4634     -1383.6471      10458.602      8.5842411      157.33066    
      4610   0             -2551.7486     -1384.6942      10445.4        8.5804511      157.37297    
      4620   0              10400.354     -1385.5217      10430.244      8.5545268      157.41387    
      4630   0             -2336.8479     -1386.316       10431.753      8.5551781      157.59083    
      4640   0              19292.833     -1387.0802      10447.502      8.5741348      157.44296    
      4650   0              356.84155     -1388.1711      10415.55       8.5384319      157.65789    
      4660   0             -2152.8182     -1389.266       10423.31       8.5395306      157.76218    
      4670   0             -2973.6194     -1391.3884      10408.223      8.5074852      157.89609    
      4680   0              2834.2681     -1392.0504      10415.2        8.506511       157.85538    
      4690   0              2777.8707     -1394.0619      10393.045      8.4895807      158.07461    
      4700   0             -735.78569     -1395.1223      10395.925      8.4940799      158.13228    
      4710   0              5530.2204     -1396.014       10384.172      8.4685215      158.13922    
      4720   0              2247.8399     -1398.5015      10383.006      8.454588       158.47613    
      4730   0              2738.482      -1399.4416      10359.963      8.4325678      158.4187     
      4740   0             -2355.2846     -1400.478       10370.322      8.4381806      158.41845    
      4750   0             -870.6625      -1401.5536      10352.421      8.4112984      158.5132     
      4760   0              986.25116     -1402.6205      10347.248      8.4134929      158.63317    
      4770   0              3112.0882     -1404.7872      10358.06       8.4095986      158.80725    
      4780   0             -1661.3844     -1406.6624      10336.911      8.3615388      158.95685    
      4790   0             -3010.5384     -1409.248       10328.339      8.3386095      159.18307    
      4800   0              15681.848     -1411.9155      10344.159      8.3463415      159.48217    
      4810   0             -3147.7923     -1412.695       10326.413      8.3301393      159.40936    
      4820   0              4860.9253     -1414.3688      10326.658      8.3078275      159.50117    
      4830   0              4096.0752     -1415.8983      10289.581      8.2957098      159.54083    
      4840   0              4907.8507     -1417.7113      10289.907      8.2763992      159.62681    
      4850   0              26817.175     -1418.8378      10315.065      8.2976203      159.52042    
      4860   0             -2396.4511     -1420.5783      10304.091      8.2816999      159.82126    
      4870   0              3646.3973     -1422.0678      10298.071      8.2649449      159.85707    
      4880   0              412.44951     -1423.2059      10289.814      8.2602014      159.97927    
      4890   0              6047.8272     -1424.7788      10295.69       8.261333       159.96508    
      4900   0              11316.646     -1426.2251      10281.28       8.2220332      160.10676    
      4910   0             -4467.5141     -1428.579       10302.398      8.2344556      160.2172     
      4920   0              5851.6788     -1430.6138      10276.769      8.2070521      160.38008    
      4930   0              12303.349     -1431.5018      10252.729      8.1869609      160.43206    
      4940   0             -4292.8675     -1433.74        10281.682      8.1918317      160.57864    
      4950   0              11243.257     -1435.082       10285.466      8.1956813      160.51374    
      4960   0             -1348.0665     -1436.6694      10264.798      8.1621624      160.79831    
      4970   0              802.46946     -1437.5096      10267.354      8.1680311      160.68603    
      4980   0             -1127.1479     -1438.3984      10258.146      8.1617804      160.79586    
      4990   0              54766.574     -1441.0567      10270.303      8.1392994      160.8843     
      5000   0              8053.429      -1442.4173      10233.898      8.1175758      161.04078    
      5010   0             -2958.2394     -1443.4855      10250.753      8.1111548      161.07334    
      5020   0              1793.423      -1444.634       10237.299      8.0940546      161.15451    
      5030   0             -768.57128     -1445.5533      10246.471      8.1034053      161.11799    
      5040   0             -1912.6716     -1447.5604      10239.67       8.0904095      161.295      
      5050   0              5061.4639     -1448.3526      10229.273      8.0714475      161.32254    
      5060   0              159.19276     -1449.6741      10222.902      8.0662679      161.391      
      5070   0             -2269.3296     -1450.7477      10223.565      8.0626339      161.49483    
      5080   0              13834.844     -1451.9644      10215.313      8.0367853      161.4991     
      5090   0             -892.45549     -1453.1773      10212.185      8.0328315      161.7196     
      5100   0             -2829.085      -1454.3809      10213.603      8.0389818      161.74631    
      5110   0              55604.037     -1456.4883      10192.168      8.0154327      161.70489    
      5120   0             -3784.0493     -1457.618       10204.295      8.013399       161.84345    
      5130   0              11780.041     -1458.8201      10207.186      8.0083994      161.78745    
      5140   0              2122.3856     -1460.1101      10182.483      7.9924484      161.87792    
      5150   0              1706.9796     -1460.9829      10182.963      7.9955354      161.82075    
      5160   0             -3134.0327     -1462.4526      10198.196      7.982315       162.1675     
      5170   0             -6800.7344     -1463.201       10197.57       7.992861       162.00801    
      5180   0             -691.48461     -1463.763       10177.246      7.9817161      161.97506    
      5190   0              8716.3084     -1464.5076      10162.144      7.9866847      161.86938    
      5200   0             -3135.7475     -1465.166       10182.655      7.9810082      161.92238    
      5210   0             -6869.4151     -1467.3708      10181.784      7.969021       162.09931    
      5220   0             -3671.034      -1468.1419      10175.843      7.9767914      161.96179    
      5230   0              3114.5606     -1469.0288      10157.984      7.9603369      161.98365    
      5240   0             -2771.5851     -1469.5207      10158.359      7.966653       161.89507    
      5250   0             -1386.7523     -1469.9956      10149.843      7.9693419      161.77364    
      5260   0             -2612.2972     -1470.8477      10159.606      7.9625438      161.90918    
      5270   0             -4661.4752     -1472.1681      10154.218      7.957966       161.82548    
      5280   0             -8655.7326     -1472.5228      10158.512      7.9674464      161.7296     
      5290   0             -474.25921     -1473.3631      10135.792      7.9547387      161.81655    
      5300   0              8720.1971     -1473.6482      10128.37       7.955693       161.70843    
      5310   0             -1158.0052     -1474.0483      10132.322      7.9573234      161.71477    
      5320   0             -470.77716     -1474.894       10131.046      7.9575856      161.80944    
      5330   0              2013.5868     -1475.0868      10117.648      7.9468828      161.69144    
      5340   0              3462.9506     -1475.5586      10119.368      7.9443553      161.66876    
      5350   0             -1040.4782     -1476.0421      10117.664      7.9463267      161.65743    
      5360   0              4444.5594     -1476.5185      10122.515      7.9461907      161.79774    
      5370   0              3459.055      -1477.0589      10112.948      7.942575       161.72583    
      5380   0              4061.0382     -1477.3706      10113.918      7.9484219      161.54092    
      5390   0              3067.9501     -1478.4718      10101.429      7.944399       161.6615     
      5400   0             -5101.7149     -1478.8989      10110.879      7.9443151      161.56187    
      5410   0             -3497.4548     -1479.3281      10105.967      7.9465008      161.57859    
      5420   0              6138.8802     -1479.9803      10092.157      7.9462246      161.5707     
      5430   0             -4807.1106     -1481.1226      10096.795      7.9495263      161.54462    
      5440   0              3143.7849     -1481.5172      10095.943      7.946598       161.63019    
      5450   0              2504.8153     -1481.8221      10072.052      7.9389545      161.46895    
      5460   0             -2282.5293     -1482.2197      10077.483      7.9455876      161.38354    
      5470   0              632.81681     -1482.6429      10077.484      7.942623       161.40659    
      5480   0              728.60306     -1483.0131      10073.609      7.9437896      161.52525    
      5490   0              4647.2861     -1483.7749      10073.443      7.9369051      161.63696    
      5500   0             -5742.0275     -1484.0673      10077.675      7.9455578      161.39301    
      5510   0             -6120.7553     -1484.4226      10074.919      7.9490696      161.35196    
      5520   0             -1492.0308     -1484.7625      10065.197      7.9432839      161.47487    
      5530   0             -956.08315     -1484.9442      10057.284      7.9446255      161.21324    
      5540   0             -2884.9376     -1485.2978      10072.085      7.9502845      161.33285    
      5550   0             -4518.9164     -1485.7777      10065.574      7.9402895      161.35592    
      5560   0             -6500.3042     -1486.0149      10075.446      7.9509836      161.31481    
      5570   0             -3023.1729     -1486.3854      10053.203      7.9504829      161.30961    
      5580   0              3129.5655     -1486.5879      10047.794      7.9454334      161.24567    
      5590   0             -1815.981      -1486.7772      10050.721      7.9399959      161.24425    
      5600   0              2150.9433     -1487.0152      10042.922      7.9356753      161.24922    
      5610   0             -1243.8741     -1487.3325      10048.563      7.9368893      161.36763    
      5620   0             -3649.4876     -1487.4908      10051.87       7.9394446      161.29676    
      5630   0             -5139.576      -1487.6371      10054.995      7.9429133      161.30901    
      5640   0             -2463.5031     -1487.7011      10049.172      7.9441655      161.23174    
      5650   0              2579.5726     -1487.7548      10044.744      7.9455879      161.20582    
      5660   0             -5080.5236     -1487.8424      10055.435      7.953931       161.21919    
      5670   0              5472.3765     -1487.9428      10043.227      7.9375618      161.26647    
      5680   0              2815.3294     -1488.3283      10042.397      7.9400587      161.33281    
      5690   0              323.67171     -1488.428       10047.136      7.946176       161.26352    
      5700   0             -2091.8982     -1488.5587      10047.329      7.9482095      161.28068    
      5710   0              2581.8431     -1488.7228      10039.955      7.9422078      161.34162    
      5720   0             -4633.4244     -1489.0266      10057.225      7.94253        161.39965    
      5730   0              5327.9071     -1489.2649      10029.122      7.9392386      161.2713     
      5740   0              2974.1201     -1489.5013      10039.466      7.9434513      161.23036    
      5750   0              1446.3603     -1489.6982      10041.077      7.9445498      161.26355    
      5760   0             -2128.3457     -1489.8889      10043.105      7.9440475      161.27592    
      5770   0             -4052.5455     -1489.9727      10043.909      7.9440645      161.25866    
      5780   0              3910.4297     -1490.0637      10039.466      7.9498413      161.29421    
      5790   0             -4780.0264     -1490.3103      10048.891      7.9420704      161.35692    
      5800   0             -2949.732      -1490.3801      10041.3        7.9379764      161.30263    
      5810   0             -1583.9878     -1490.6435      10051.449      7.9377181      161.54495    
      5820   0              4375.5864     -1491.0871      10025.614      7.9344255      161.30009    
      5830   0              4205.3831     -1491.3723      10031.983      7.9443417      161.21582    
      5840   0             -2142.8921     -1491.7809      10049.34       7.9398647      161.46459    
      5850   0             -5299.6459     -1492.4183      10050.637      7.9426246      161.49801    
      5860   0             -3792.3062     -1492.5833      10036.932      7.9388013      161.36595    
      5870   0              818.1202      -1492.6759      10031.034      7.9421972      161.31897    
      5880   0              49.142961     -1492.7114      10030.394      7.9415487      161.30018    
      5890   0             -973.92247     -1492.9287      10038.366      7.9370934      161.48631    
      5900   0             -586.01361     -1493.2131      10033.425      7.9367848      161.43343    
      5910   0             -3388.749      -1493.2897      10032.308      7.9437097      161.39007    
      5920   0             -6839.2825     -1494.2428      10043.946      7.9393419      161.6831     
      5930   0              2441.1475     -1495.1868      10030.649      7.9392359      161.65904    
      5940   0             -4980.1373     -1495.5969      10033.717      7.9389296      161.6037     
      5950   0             -1349.367      -1495.7263      10027.256      7.939378       161.52708    
      5960   0             -3239.916      -1496.103       10029.99       7.9431287      161.64512    
      5970   0              3257.4863     -1496.4592      10024.169      7.9356012      161.51755    
      5980   0              267.60275     -1496.6582      10024.447      7.9385394      161.48332    
      5990   0             -5485.1318     -1496.9625      10030.902      7.9391096      161.66686    
      6000   0             -1271.5718     -1497.6195      10024.302      7.9250136      161.86056    
      6010   0             -5578.3445     -1498.0283      10029.839      7.9394326      161.64825    
      6020   0             -290.2337      -1498.3866      10020.766      7.931541       161.57976    
      6030   0              5410.0208     -1498.8404      10017.253      7.9364824      161.65084    
      6040   0             -2075.5639     -1498.9565      10017.558      7.9327409      161.61845    
      6050   0             -2018.795      -1499.3262      10030.481      7.9347141      161.80665    
      6060   0              3092.8577     -1499.6084      10009.961      7.9348418      161.57482    
      6070   0              1310.4543     -1499.7214      10009.648      7.931408       161.59417    
      6080   0              1891.5661     -1499.9651      10015.112      7.9292823      161.71397    
      6090   0              299.73427     -1500.2679      10025.343      7.9411171      161.74151    
      6100   0              1484.2598     -1500.4688      10013.572      7.9339953      161.6986     
      6110   0             -5463.6243     -1500.7198      10020.719      7.9342861      161.73769    
      6120   0              2322.3833     -1500.8759      10012.757      7.9339585      161.72857    
      6130   0             -243.10018     -1501.2722      10017.149      7.9326082      161.89574    
      6140   0              2573.1615     -1501.4938      10011.358      7.9284895      161.73202    
      6150   0             -2550.0733     -1501.9237      10012.641      7.9372905      161.67507    
      6160   0             -367.63389     -1502.0173      10006.192      7.9373995      161.6792     
      6170   0              1857.1477     -1502.0802      9998.9078      7.9295133      161.68147    
      6180   0              3241.9438     -1502.2259      10003.718      7.9345276      161.68786    
      6190   0              4994.2078     -1502.4897      10004.121      7.9309697      161.78331    
      6200   0             -420.3006      -1502.6572      10005.214      7.9353141      161.84891    
      6210   0              2339.9772     -1502.9572      10016.273      7.9281219      161.98362    
      6220   0              564.40539     -1503.8374      10009.703      7.9322898      161.87261    
      6230   0             -1666.0022     -1504.8115      10001.618      7.9249677      162.12898    
      6240   0             -708.46254     -1505.3031      9998.8792      7.9271028      162.07745    
      6250   0              638.0815      -1505.7011      9999.9981      7.92569        162.03364    
      6260   0              1618.056      -1506.0289      9993.785       7.9277305      161.90382    
      6270   0              1327.828      -1506.5545      9983.0991      7.9294846      161.86844    
      6280   0             -1439.8632     -1506.7283      9988.3857      7.9310987      161.79148    
      6290   0             -634.13366     -1506.9502      9983.9156      7.9326442      161.77926    
      6300   0             -1238.8027     -1507.1047      9982.3243      7.9285042      161.81695    
      6310   0             -396.11036     -1507.3522      9984.6805      7.9264617      161.98456    
      6320   0             -3201.0406     -1507.7019      9991.3413      7.935406       161.9245     
      6330   0             -2330.9175     -1508.105       9985.8134      7.93562        161.91657    
      6340   0             -4975.5039     -1508.4146      9987.6527      7.9324263      162.05135    
      6350   0             -1354.368      -1508.621       9981.7397      7.9325887      161.85522    
      6360   0              0.65249942    -1508.7899      9978.1381      7.9295702      161.89999    
      6370   0              1210.2863     -1508.9298      9976.0218      7.928634       161.86213    
      6380   0              2881.7516     -1509.1053      9978.9678      7.9283025      162.01802    
      6390   0              485.14904     -1509.2443      9973.164       7.928285       161.90396    
      6400   0              424.96145     -1509.3442      9970.7314      7.927834       161.81512    
      6410   0             -4897.5367     -1509.4703      9986.5702      7.9288404      162.07851    
      6420   0             -209.19182     -1509.6587      9975.1784      7.9283652      161.89779    
      6430   0             -5090.2529     -1509.8236      9977.6199      7.9325466      161.94166    
      6440   0              1627.381      -1509.9578      9972.1398      7.929302       161.88124    
      6450   0              3241.8959     -1510.2114      9963.8189      7.9256749      161.88613    
      6460   0             -1811.2654     -1510.3055      9966.6861      7.9257931      161.82429    
      6470   0             -1191.3827     -1510.495       9972.4048      7.9239001      162.08523    
      6480   0             -239.05037     -1510.6405      9971.8954      7.9261637      161.99314    
      6490   0              604.32463     -1510.7381      9964.6578      7.9279794      161.8689     
      6500   0              2552.1753     -1510.9076      9962.0794      7.9260373      161.92433    
      6510   0              1211.6238     -1511.205       9965.13        7.9276902      161.90291    
      6520   0             -1092.726      -1511.4546      9959.0033      7.9270353      161.94236    
      6530   0              2717.1655     -1511.6105      9956.435       7.9295731      161.8183     
      6540   0             -3517.7641     -1511.7772      9958.7689      7.9260878      161.79904    
      6550   0              454.72849     -1511.9639      9955.81        7.9255546      161.91211    
      6560   0              782.22389     -1512.0694      9957.2649      7.9280379      161.77631    
      6570   0             -1377.7379     -1512.1411      9953.5374      7.9300653      161.71403    
      6580   0             -126.75834     -1512.1922      9948.4566      7.9275098      161.71674    
      6590   0             -1814.6419     -1512.3276      9954.5301      7.9259179      161.85402    
      6600   0              3896.566      -1512.3994      9946.8724      7.9284031      161.71856    
      6610   0              318.83317     -1512.5499      9949.3097      7.9261955      161.80873    
      6620   0             -284.2448      -1512.655       9941.7094      7.9274087      161.7127     
      6630   0             -1500.2119     -1512.7087      9946.4052      7.925728       161.67686    
      6640   0             -4305.9493     -1512.8134      9955.7886      7.9297887      161.7772     
      6650   0             -4766.7895     -1513.2408      9954.7926      7.9267015      161.91046    
      6660   0             -245.68977     -1513.3422      9943.9014      7.9259816      161.78597    
      6670   0             -364.64569     -1513.4821      9934.3221      7.9250034      161.65675    
      6680   0             -1206.1557     -1513.5203      9938.0713      7.9295076      161.60698    
      6690   0             -1503.0647     -1513.5806      9933.2295      7.9281097      161.62516    
      6700   0             -343.41818     -1513.6003      9933.8213      7.927165       161.60929    
      6710   0              372.11899     -1513.6945      9933.2459      7.9281748      161.63667    
      6720   0              2690.8832     -1513.8145      9938.2762      7.9239992      161.74992    
      6730   0             -4566.3268     -1514.0075      9939.1414      7.9289058      161.72409    
      6740   0             -3146.2196     -1514.129       9930.7439      7.928988       161.61784    
      6750   0             -566.85528     -1514.177       9925.3857      7.9288103      161.56048    
      6760   0             -1677.4481     -1514.2141      9926.7541      7.9292159      161.55855    
      6770   0              826.41736     -1514.3229      9923.765       7.9240513      161.6297     
      6780   0              423.35567     -1514.3679      9924.4849      7.9269295      161.58616    
      6790   0             -2351.1101     -1514.3943      9925.9187      7.925967       161.57244    
      6800   0             -1252.0934     -1514.5025      9926.9867      7.9205325      161.74882    
      6810   0             -5506.5649     -1515.0464      9935.1362      7.9209871      161.9246     
      6820   0             -938.36809     -1515.3234      9915.4838      7.9267861      161.62152    
      6830   0              1969.8068     -1515.4798      9905.851       7.9268728      161.41572    
      6840   0              324.34143     -1515.5687      9906.8287      7.9267572      161.4204     
      6850   0              3812.0776     -1515.613       9906.7313      7.928291       161.40216    
      6860   0             -3804.0086     -1515.7354      9913.3171      7.9269932      161.55698    
      6870   0             -4765.4123     -1515.8086      9912.03        7.928623       161.43904    
      6880   0             -849.90832     -1515.851       9903.2372      7.9278521      161.3874     
      6890   0              287.15431     -1515.8815      9902.4438      7.9282996      161.34706    
      6900   0             -263.2112      -1516.0091      9905.9775      7.9231763      161.45232    
      6910   0             -2824.0628     -1516.0901      9905.1543      7.9267099      161.3946     
      6920   0             -3217.3015     -1516.1013      9903.0878      7.9282929      161.38225    
      6930   0              5635.3812     -1516.2017      9899.5303      7.9230001      161.47305    
      6940   0             -1444.9269     -1516.3249      9901.1286      7.9274434      161.36756    
      6950   0             -1014.975      -1516.3676      9895.8048      7.9250878      161.32473    
      6960   0             -458.3465      -1516.422       9897.9784      7.929274       161.32462    
      6970   0             -194.07705     -1516.5125      9898.0518      7.9283068      161.32698    
      6980   0             -435.09552     -1516.5444      9893.5932      7.9271203      161.29841    
      6990   0             -323.0817      -1516.6015      9892.7876      7.9273103      161.29119    
      7000   0              1111.0958     -1516.6188      9890.9232      7.9270381      161.2739     
      7010   0             -4651.5579     -1516.6399      9897.4547      7.928294       161.34685    
      7020   0              158.34495     -1516.6713      9889.5996      7.9255261      161.28984    
      7030   0             -1189.7158     -1516.6901      9890.31        7.926416       161.26459    
      7040   0             -1255.0937     -1516.7863      9890.7453      7.9245811      161.31826    
      7050   0             -1704.3886     -1516.8064      9891.0151      7.9274177      161.2805     
      7060   0              2449.8103     -1516.9191      9890.766       7.9216455      161.33548    
      7070   0              1722.2635     -1517.2079      9881.3598      7.927703       161.22041    
      7080   0             -1881.1851     -1517.2592      9880.4378      7.9269292      161.21919    
      7090   0             -503.38476     -1517.2919      9879.4355      7.925713       161.19332    
      7100   0             -3407.9641     -1517.3079      9882.4095      7.9297289      161.1649     
      7110   0             -3285.5928     -1517.3408      9886.2461      7.9289808      161.21378    
      7120   0             -1363.1112     -1517.3864      9878.7361      7.9249323      161.2256     
      7130   0             -2450.1226     -1517.4112      9879.9157      7.9286136      161.1553     
      7140   0             -386.47837     -1517.469       9879.5935      7.9270295      161.20403    
      7150   0             -442.28562     -1517.5173      9876.7656      7.9265684      161.13536    
      7160   0              695.16695     -1517.5414      9874.6926      7.923603       161.14858    
      7170   0              426.27533     -1517.562       9874.1616      7.9266018      161.12662    
      7180   0              676.01316     -1517.5876      9873.1822      7.9263543      161.12925    
      7190   0             -448.63013     -1517.6045      9874.126       7.9267894      161.13296    
      7200   0             -2168.0208     -1517.6258      9875.0141      7.9251799      161.13174    
      7210   0             -671.71143     -1517.6393      9872.1757      7.9258089      161.12983    
      7220   0             -2104.5092     -1517.6518      9875.2594      7.9260691      161.13437    
      7230   0              590.41009     -1517.7823      9872.7428      7.9274868      161.156      
      7240   0             -727.14709     -1517.811       9869.3415      7.9256834      161.13144    
      7250   0              710.09673     -1517.8434      9871.0463      7.9271322      161.11053    
      7260   0             -243.94804     -1517.8613      9870.7667      7.9278062      161.09695    
      7270   0              268.1412      -1517.8781      9870.023       7.9265361      161.0914     
      7280   0             -984.20066     -1517.9334      9869.231       7.9267605      161.11689    
      7290   0             -2072.8082     -1517.9465      9870.049       7.9265637      161.09797    
      7300   0             -2555.9982     -1517.9553      9870.5371      7.9274741      161.08653    
      7310   0              456.4868      -1517.9668      9867.7051      7.9264472      161.07996    
      7320   0             -321.78352     -1518.2233      9871.0109      7.9219349      161.35302    
      7330   0              1036.9231     -1518.5751      9859.3139      7.9241183      161.0954     
      7340   0             -1142.2123     -1518.5993      9858.2611      7.9245234      161.05976    
      7350   0             -4698.6543     -1518.6363      9862.6274      7.925375       161.06783    
      7360   0              4499.3652     -1518.9603      9844.4932      7.9211159      161.02746    
      7370   0              918.77535     -1519.6274      9839.9524      7.9222723      161.0769     
      7380   0             -1143.7516     -1519.7391      9831.554       7.9275311      160.89678    
      7390   0             -220.83827     -1519.9041      9830.7055      7.9250361      160.80691    
      7400   0              1784.645      -1519.9985      9824.1446      7.9256523      160.72287    
      7410   0              721.9315      -1520.074       9825.0953      7.9230147      160.78521    
      7420   0             -3056.7322     -1520.1343      9826.8737      7.9267544      160.72991    
      7430   0             -1193.5768     -1520.155       9824.1875      7.9255379      160.69469    
      7440   0             -1264.6852     -1520.2484      9825.4844      7.9259607      160.80389    
      7450   0             -1461.5867     -1520.3018      9822.5879      7.9233059      160.73466    
      7460   0             -3671.2755     -1520.3682      9825.5905      7.925756       160.83303    
      7470   0              809.91026     -1520.7815      9819.4252      7.916296       160.90073    
      7480   0             -3704.1904     -1520.9053      9815.1042      7.9245671      160.67449    
      7490   0             -2227.6516     -1520.9474      9810.1315      7.9250128      160.59329    
      7500   0              769.76741     -1520.9783      9805.9959      7.9245761      160.60441    
      7510   0              258.25939     -1521.0042      9804.3372      7.9241781      160.57443    
      7520   0              790.65459     -1521.0967      9805.3193      7.9218691      160.6207     
      7530   0             -1022.0921     -1521.1216      9803.9887      7.9245862      160.57035    
      7540   0             -1474.5277     -1521.1385      9803.0128      7.9240747      160.55068    
      7550   0              536.68318     -1521.1523      9801.1427      7.923678       160.54095    
      7560   0             -1288.1998     -1521.2873      9800.117       7.9229973      160.55399    
      7570   0             -65.589308     -1521.3031      9795.471       7.9224786      160.54616    
      7580   0              658.23659     -1521.3765      9798.6911      7.9237724      160.52239    
      7590   0             -674.1784      -1521.4064      9794.9068      7.922557       160.4987     
      7600   0              197.70721     -1521.4231      9795.0155      7.9238949      160.47353    
      7610   0             -2080.8241     -1521.4949      9797.3129      7.9236892      160.52396    
      7620   0              863.12491     -1521.511       9794.7859      7.9237546      160.48178    
      7630   0             -3881.201      -1521.5174      9797.9436      7.9252866      160.49973    
      7640   0             -2219.0834     -1521.5433      9795.3408      7.9226366      160.47431    
      7650   0              263.82241     -1521.5684      9793.1605      7.9257838      160.50121    
      7660   0             -7412.815      -1522.2037      9789.8513      7.9248884      160.59134    
      7670   0             -7033.8098     -1522.6103      9779.9237      7.9245291      160.42274    
[...]
     21359   0             -1583.2046     -830.89094     -419.71214     -2544.5464      471.58574     -18727.805      4411.2952      69.40697       7.6449194      7.2929321      164.41382      9166.7079    
     21360   0             -1583.2084     -471.21971     -464.79        -2067.4651      1118.596      -18562.513      4422.428       91.673313      7.6449194      7.2929321      164.41382      9166.7079    
     21361   0             -1583.2112      288.84548     -356.11609     -1112.9774      2335.6299     -18107.663      4171.5924      306.2028       7.6449194      7.2929321      164.41382      9166.7079    
     21362   0             -1583.2114      5.9504219     -471.43834     -807.71694      1297.0065     -18038.802      4543.1691      641.99156      7.6449194      7.2929321      164.41382      9166.7079    
     21363   0             -1583.2157     -344.63712     -582.35936     -964.22418      512.67218     -18177.921      4632.0789      643.28473      7.6449194      7.2929321      164.41382      9166.7079    
     21364   0             -1583.2199     -656.57775     -602.33133     -1715.0558      347.65383     -18530.975      4387.133       253.48041      7.6449194      7.2929321      164.41382      9166.7079    
     21365   0             -1583.2205     -648.3915      -592.23324     -1714.3401      361.39881     -18522.753      4393.3813      260.55713      7.6449194      7.2929321      164.41382      9166.7079    
     21366   0             -1583.2212     -615.81455     -578.64159     -1658.8803      390.07824     -18486.528      4418.8632      297.64477      7.6449194      7.2929321      164.41382      9166.7079    
     21367   0             -1583.2218     -596.54472     -568.9164      -1629.1867      408.46893     -18465.198      4433.4726      318.76207      7.6449194      7.2929321      164.41382      9166.7079    
     21368   0             -1583.2224     -584.01835     -561.33618     -1612.3204      421.60155     -18451.406      4442.5401      331.80772      7.6449194      7.2929321      164.41382      9166.7079    
     21369   0             -1583.223      -574.80792     -555.1173      -1602.7222      433.41571     -18441.995      4447.9924      339.59069      7.6449194      7.2929321      164.41382      9166.7079    
     21370   0             -1583.2236     -446.4454      -540.74799     -1573.1087      774.52053     -18420.414      4396.3547      254.331        7.6449194      7.2929321      164.41382      9166.7079    
     21371   0             -1583.2245     -562.45221     -542.21746     -1592.6312      447.49202     -18425.918      4456.7135      352.60492      7.6449194      7.2929321      164.41382      9166.7079    
     21372   0             -1583.2251     -560.08453     -538.76193     -1593.9415      452.44981     -18423.494      4457.1699      353.54839      7.6449194      7.2929321      164.41382      9166.7079    
     21373   0             -1583.2257     -558.36073     -535.94357     -1595.9395      456.80089     -18421.916      4457.0277      353.7255       7.6449194      7.2929321      164.41382      9166.7079    
     21374   0             -1583.2262     -556.78942     -533.37815     -1597.9486      460.95844     -18420.53       4456.7006      353.72808      7.6449194      7.2929321      164.41382      9166.7079    
     21375   0             -1583.2268     -555.32541     -531.02467     -1599.9191      464.96759     -18419.283      4456.2308      353.6085       7.6449194      7.2929321      164.41382      9166.7079    
     21376   0             -1583.2274     -553.93801     -528.84941     -1601.8258      468.86117     -18418.136      4455.6487      353.40231      7.6449194      7.2929321      164.41382      9166.7079    
     21377   0             -1583.228      -552.60639     -526.82435     -1603.6582      472.66338     -18417.062      4454.9761      353.13375      7.6449194      7.2929321      164.41382      9166.7079    
     21378   0             -1583.2285     -481.17048     -519.66506     -1591.2982      667.45181     -18407.423      4422.5278      300.88554      7.6449194      7.2929321      164.41382      9166.7079    
     21379   0             -1583.2293     -550.85133     -522.94207     -1607.8799      478.26795     -18414.705      4453.1067      352.35472      7.6449194      7.2929321      164.41382      9166.7079    
     21380   0             -1583.2298     -480.303       -503.95161     -1602.85        665.89263     -18402.987      4395.7934      316.91038      7.6449194      7.2929321      164.41382      9166.7079    
     21381   0             -1583.2306     -548.92842     -519.49914     -1611.5853      484.29918     -18412.903      4451.6749      351.98503      7.6449194      7.2929321      164.41382      9166.7079    
     21382   0             -1583.2312     -474.335       -512.5133      -1598.457       687.96532     -18403.046      4417.6558      297.46148      7.6449194      7.2929321      164.41382      9166.7079    
     21383   0             -1583.2319     -368.18871     -502.99345     -1579.2755      977.70281     -18388.716      4368.3169      218.31553      7.6449194      7.2929321      164.41382      9166.7079    
     21384   0             -1583.233      -524.85461     -508.73471     -1616.7193      550.89016     -18405.103      4427.8036      338.13969      7.6449194      7.2929321      164.41382      9166.7079    
     21385   0             -1583.2338     -547.60883     -513.19039     -1620.8654      491.22926     -18407.752      4445.9068      349.7444       7.6449194      7.2929321      164.41382      9166.7079    
     21386   0             -1583.2344     -505.61893     -501.7956      -1618.2804      603.21918     -18400.553      4411.6297      328.7019       7.6449194      7.2929321      164.41382      9166.7079    
     21387   0             -1583.2351     -545.69967     -510.78526     -1623.8334      497.51969     -18406.078      4443.9758      349.21459      7.6449194      7.2929321      164.41382      9166.7079    
     21388   0             -1583.2358     -544.5783      -509.59143     -1625.2472      501.10375     -18405.157      4442.8296      348.81375      7.6449194      7.2929321      164.41382      9166.7079    
     21389   0             -1583.2364     -543.47403     -508.4038      -1626.6884      504.67008     -18404.22       4441.6677      348.40508      7.6449194      7.2929321      164.41382      9166.7079    
     21390   0             -1583.2371     -270.44242     -464.16524     -1587.3142      1240.1522     -18365.793      4270.6611      177.57288      7.6449194      7.2929321      164.41382      9166.7079    
     21391   0             -1583.2383     -369.95387     -461.76248     -1615.9064      967.80724     -18375.074      4296.1955      261.65331      7.6449194      7.2929321      164.41382      9166.7079    
     21392   0             -1583.2397     -413.63395     -494.38597     -1611.3197      864.80378     -18384.662      4377.5718      253.50672      7.6449194      7.2929321      164.41382      9166.7079    
     21393   0             -1583.2412     -354.99369     -488.87203     -1602.5854      1026.4764     -18374.788      4348.5334      205.05881      7.6449194      7.2929321      164.41382      9166.7079    
     21394   0             -1583.2429     -554.0576      -502.57234     -1648.0659      488.46541     -18395.95       4433.3076      348.4553       7.6449194      7.2929321      164.41382      9166.7079    
     21395   0             -1583.2439     -553.08539     -501.43618     -1650.6256      492.80555     -18394.551      4431.6653      348.06424      7.6449194      7.2929321      164.41382      9166.7079    
     21396   0             -1583.2446     -551.92135     -500.50298     -1652.3902      497.12915     -18393.537      4430.4921      347.76419      7.6449194      7.2929321      164.41382      9166.7079    
     21397   0             -1583.2453     -435.9634      -491.01164     -1631.3643      814.48574     -18378.534      4377.6439      262.85416      7.6449194      7.2929321      164.41382      9166.7079    
     21398   0             -1583.2462     -537.16629     -495.25119     -1655.9749      539.72723     -18388.769      4416.0014      339.94476      7.6449194      7.2929321      164.41382      9166.7079    
     21399   0             -1583.2471     -541.57028     -495.50987     -1658.9555      529.75449     -18388.355      4419.055       342.37674      7.6449194      7.2929321      164.41382      9166.7079    
     21400   0             -1583.2479     -483.29564     -480.06258     -1655.8582      686.03383     -18378.397      4371.075       313.52715      7.6449194      7.2929321      164.41382      9166.7079    
     21401   0             -1583.2487     -457.3844      -488.92699     -1646.182       762.95579     -18376.429      4382.9914      278.88831      7.6449194      7.2929321      164.41382      9166.7079    
     21402   0             -1583.2496     -448.10057     -487.46636     -1647.9042      791.06885     -18373.704      4376.9211      271.37119      7.6449194      7.2929321      164.41382      9166.7079    
     21403   0             -1583.2505      301.52565     -386.78284     -1533.9444      2825.3042     -18272.941      3943.3804     -215.76184      7.6449194      7.2929321      164.41382      9166.7079    
     21404   0             -1583.2544      42.942452     -433.25262     -1582.437       2144.517      -18301.25       4107.9408     -75.525077      7.6449194      7.2929321      164.41382      9166.7079    
     21405   0             -1583.2582      1609.3612      62.257974     -1525.7802      6291.6058     -18025.33       2590.6009     -749.80374      7.6449194      7.2929321      164.41382      9166.7079    
     21406   0             -1583.268       440.52313     -226.32307     -1672.7439      3220.6363     -18184.494      3501.4101     -188.88914      7.6449194      7.2929321      164.41382      9166.7079    
     21407   0             -1583.2692     -621.80265     -495.11167     -1773.3207      403.02445     -18348.607      4370.7206      339.26375      7.6449194      7.2929321      164.41382      9166.7079    
     21408   0             -1583.2697     -647.56613     -502.1918      -1777.3709      336.86435     -18352.248      4392.6574      353.20995      7.6449194      7.2929321      164.41382      9166.7079    
     21409   0             -1583.2702     -646.18223     -502.19157     -1778.7594      342.40427     -18351.717      4392.1658      353.6577       7.6449194      7.2929321      164.41382      9166.7079    
     21410   0             -1583.2707     -644.82109     -502.13521     -1780.1584      347.83031     -18351.187      4391.6777      354.08111      7.6449194      7.2929321      164.41382      9166.7079    
     21411   0             -1583.2711     -643.48121     -502.02744     -1781.5666      353.1504      -18350.655      4391.1938      354.48438      7.6449194      7.2929321      164.41382      9166.7079    
     21412   0             -1583.2716     -642.16176     -501.87256     -1782.9836      358.37092     -18350.12       4390.7144      354.8704       7.6449194      7.2929321      164.41382      9166.7079    
     21413   0             -1583.2721     -640.86231     -501.6745      -1784.4099      363.49745     -18349.581      4390.2391      355.2413       7.6449194      7.2929321      164.41382      9166.7079    
     21414   0             -1583.2725     -639.58272     -501.43686     -1785.8462      368.53493     -18349.036      4389.7676      355.59869      7.6449194      7.2929321      164.41382      9166.7079    
     21415   0             -1583.273      -609.29287     -493.74821     -1784.7174      450.58698     -18344.115      4365.3897      341.85008      7.6449194      7.2929321      164.41382      9166.7079    
     21416   0             -1583.2734     -507.4923      -491.0008      -1764.4378      732.96171     -18332.459      4329.6847      263.36133      7.6449194      7.2929321      164.41382      9166.7079    
     21417   0             -1583.2741     -531.32364     -474.59545     -1781.3873      662.01185     -18330.828      4302.4241      303.86837      7.6449194      7.2929321      164.41382      9166.7079    
     21418   0             -1583.2747     -636.38537     -500.71341     -1793.8198      385.37711     -18346.501      4388.1111      357.78967      7.6449194      7.2929321      164.41382      9166.7079    
     21419   0             -1583.2752     -635.18811     -500.30182     -1795.4255      390.16295     -18345.903      4387.6494      358.13291      7.6449194      7.2929321      164.41382      9166.7079    
     21420   0             -1583.2756     -634.02108     -499.8687      -1796.9351      394.74054     -18345.321      4387.1863      358.41899      7.6449194      7.2929321      164.41382      9166.7079    
     21421   0             -1583.2761     -632.87472     -499.41452     -1798.4654      399.25579     -18344.731      4386.7214      358.69711      7.6449194      7.2929321      164.41382      9166.7079    
     21422   0             -1583.2765     -631.74938     -498.94083     -1800.0183      403.71098     -18344.134      4386.2541      358.96753      7.6449194      7.2929321      164.41382      9166.7079    
     21423   0             -1583.277      -464.0191      -472.47997     -1777.4507      857.8734      -18321.019      4282.3389      256.35154      7.6449194      7.2929321      164.41382      9166.7079    
     21424   0             -1583.2777     -630.86335     -498.20546     -1804.5503      410.16572     -18342.709      4385.4538      359.95866      7.6449194      7.2929321      164.41382      9166.7079    
     21425   0             -1583.2782     -629.79929     -497.65246     -1806.494       414.74859     -18341.998      4384.9321      360.28178      7.6449194      7.2929321      164.41382      9166.7079    
     21426   0             -1583.2786     -415.73908     -457.19351     -1780.0958      990.07207     -18311.107      4238.5435      236.01876      7.6449194      7.2929321      164.41382      9166.7079    
     21427   0             -1583.2794     -573.93138     -492.59447     -1801.0248      571.8251      -18334.111      4359.1952      322.00968      7.6449194      7.2929321      164.41382      9166.7079    
     21428   0             -1583.28       -545.60886     -475.30144     -1806.6723      645.14714     -18327.071      4315.5406      320.95496      7.6449194      7.2929321      164.41382      9166.7079    
     21429   0             -1583.2807     -628.70534     -495.83332     -1816.9302      426.64746     -18339.172      4383.7278      362.94994      7.6449194      7.2929321      164.41382      9166.7079    
     21430   0             -1583.2811     -510.54307     -486.44895     -1795.9094      750.72913     -18324.331      4330.1732      277.69972      7.6449194      7.2929321      164.41382      9166.7079    
     21431   0             -1583.2818     -628.12263     -494.91154     -1821.7884      432.33205     -18337.375      4382.2482      363.33441      7.6449194      7.2929321      164.41382      9166.7079    
     21432   0             -1583.2823     -469.40923     -454.86394     -1809.0475      855.68371     -18312.444      4253.0672      284.75487      7.6449194      7.2929321      164.41382      9166.7079    
     21433   0             -1583.2829     -407.87455     -477.0316      -1785.7791      1039.187      -18309.851      4281.6506      207.44788      7.6449194      7.2929321      164.41382      9166.7079    
     21434   0             -1583.2838     -403.05867     -464.41648     -1793.7595      1049          -18305.757      4254.9457      216.60793      7.6449194      7.2929321      164.41382      9166.7079    
     21435   0             -1583.2848     -630.92298     -493.3436      -1836.3225      436.89716     -18333.99       4381.3189      367.00011      7.6449194      7.2929321      164.41382      9166.7079    
     21436   0             -1583.2855     -630.17797     -492.66532     -1839.0451      441.1765      -18333.067      4380.6138      367.31526      7.6449194      7.2929321      164.41382      9166.7079    
     21437   0             -1583.2859     -629.30513     -492.05478     -1841.0199      445.15928     -18332.341      4380.0092      367.47394      7.6449194      7.2929321      164.41382      9166.7079    
     21438   0             -1583.2864     -628.45371     -491.42975     -1843.0427      449.11133     -18331.601      4379.3929      367.62833      7.6449194      7.2929321      164.41382      9166.7079    
     21439   0             -1583.2869     -627.62487     -490.79111     -1845.1166      453.03311     -18330.844      4378.764       367.7786       7.6449194      7.2929321      164.41382      9166.7079    
     21440   0             -1583.2874     -386.42083     -472.15764     -1800.1849      1113.0801     -18300.993      4269.5189      192.22997      7.6449194      7.2929321      164.41382      9166.7079    
     21441   0             -1583.2883     -607.99239     -484.75158     -1849.8983      510.67273     -18325.377      4360.3931      357.97704      7.6449194      7.2929321      164.41382      9166.7079    
     21442   0             -1583.2891     -476.45044     -463.92448     -1834.0669      868.64007     -18306.772      4278.9187      277.22908      7.6449194      7.2929321      164.41382      9166.7079    
     21443   0             -1583.2899     -481.37491     -451.89187     -1845.5847      853.35184     -18303.569      4255.409       295.20049      7.6449194      7.2929321      164.41382      9166.7079    
     21444   0             -1583.291      -630.62572     -488.13953     -1864.8261      461.08849     -18325.231      4375.4588      370.69982      7.6449194      7.2929321      164.41382      9166.7079    
     21445   0             -1583.2916     -494.27144     -475.18877     -1841.9979      834.37237     -18307.41       4309.2412      273.92684      7.6449194      7.2929321      164.41382      9166.7079    
     21446   0             -1583.2924     -630.92349     -487.01018     -1871.8574      466.09709     -18322.977      4373.6333      371.40628      7.6449194      7.2929321      164.41382      9166.7079    
Loop time of 0.376754 on 6 procs for 100 steps with 256 atoms

604.3% CPU use with 1 MPI tasks x 6 OpenMP threads

Minimization stats:
  Stopping criterion = max iterations
  Energy initial, next-to-last, final = 
     -1583.03007384302  -1583.29162811695   -1583.2924220747
  Force two-norm initial, final = 1.3510285 1.0920838
  Force max component initial, final = 0.18713065 0.14910574
  Final line search alpha, max atom move = 0.016094522 0.0023997857
  Iterations, force evaluations = 100 203

MPI task timing breakdown:
Section |  min time  |  avg time  |  max time  |%varavg| %total
---------------------------------------------------------------
Pair    | 0.36828    | 0.36828    | 0.36828    |   0.0 | 97.75
Neigh   | 0          | 0          | 0          |   0.0 |  0.00
Comm    | 0.0038684  | 0.0038684  | 0.0038684  |   0.0 |  1.03
Output  | 0.0014014  | 0.0014014  | 0.0014014  |   0.0 |  0.37
Modify  | 0.0017919  | 0.0017919  | 0.0017919  |   0.0 |  0.48
Other   |            | 0.00141    |            |       |  0.37

Nlocal:            256 ave         256 max         256 min
Histogram: 1 0 0 0 0 0 0 0 0 0
Nghost:           1568 ave        1568 max        1568 min
Histogram: 1 0 0 0 0 0 0 0 0 0
Neighs:              0 ave           0 max           0 min
Histogram: 1 0 0 0 0 0 0 0 0 0
FullNghs:        18776 ave       18776 max       18776 min
Histogram: 1 0 0 0 0 0 0 0 0 0

Total # of neighbors = 18776
Ave neighs/atom = 73.34375
Neighbor list builds = 0
Dangerous builds = 0
C11: -1460.1478355876
C12: -504.433393465202
C44: -4338.2899512581
Total wall time: 0:02:05
