ITEM: TIMESTEP
0
ITEM: NUMBER OF ATOMS
1152
ITEM: BOX BOUNDS xy xz yz pp pp pp
-5.9640000000000004e+00 1.1928000000000001e+01 -5.9640000000000004e+00
0.0000000000000000e+00 1.0329951016340001e+01 0.0000000000000000e+00
0.0000000000000000e+00 8.3219999999999999e+01 0.0000000000000000e+00
ITEM: ATOMS id type xs ys zs
49 1 0.0833333 0.416667 0.0231667
1 1 0.0833333 0.166667 0.0231667
2 2 0.25 0.25 0.0416667
7 2 0.166667 0.0833332 0.0416667
8 2 0.166667 0.0833332 0.00466667
55 2 0.166667 0.333333 0.0416667
56 2 0.166667 0.333333 0.00466667
13 1 0.333333 0.166667 0.0231667
61 1 0.333333 0.416667 0.0231667
38 2 -6.65303e-18 0.25 0.0416667
182 2 0 0 0.0416667
146 2 0.25 0 0.0416667
14 2 0.5 0.25 0.0416667
19 2 0.416667 0.0833332 0.0416667
20 2 0.416667 0.0833332 0.00466667
67 2 0.416667 0.333333 0.0416667
68 2 0.416667 0.333333 0.00466667
158 2 0.5 0 0.0416667
25 1 0.583333 0.166667 0.0231667
26 2 0.75 0.25 0.0416667
73 1 0.583333 0.416667 0.0231667
79 2 0.666667 0.333333 0.0416667
80 2 0.666667 0.333333 0.00466667
85 1 0.833333 0.416667 0.0231667
31 2 0.666667 0.0833332 0.0416667
32 2 0.666667 0.0833332 0.00466667
170 2 0.75 0 0.0416667
37 1 0.833333 0.166667 0.0231667
43 2 0.916667 0.0833332 0.0416667
44 2 0.916667 0.0833332 0.00466667
91 2 0.916667 0.333333 0.0416667
92 2 0.916667 0.333333 0.00466667
97 1 0.0833333 0.666667 0.0231667
145 1 0.0833333 0.916667 0.0231667
151 2 0.166667 0.833333 0.0416667
152 2 0.166667 0.833333 0.00466667
157 1 0.333333 0.916667 0.0231667
86 2 2.10079e-16 0.5 0.0416667
134 2 2.21706e-16 0.75 0.0416667
50 2 0.25 0.5 0.0416667
98 2 0.25 0.75 0.0416667
103 2 0.166667 0.583333 0.0416667
104 2 0.166667 0.583333 0.00466667
109 1 0.333333 0.666667 0.0231667
110 2 0.5 0.75 0.0416667
115 2 0.416667 0.583333 0.0416667
116 2 0.416667 0.583333 0.00466667
163 2 0.416667 0.833333 0.0416667
164 2 0.416667 0.833333 0.00466667
121 1 0.583333 0.666667 0.0231667
169 1 0.583333 0.916667 0.0231667
62 2 0.5 0.5 0.0416667
74 2 0.75 0.5 0.0416667
122 2 0.75 0.75 0.0416667
127 2 0.666667 0.583333 0.0416667
128 2 0.666667 0.583333 0.00466667
175 2 0.666667 0.833333 0.0416667
176 2 0.666667 0.833333 0.00466667
133 1 0.833333 0.666667 0.0231667
181 1 0.833333 0.916667 0.0231667
187 2 0.916667 0.833333 0.0416667
188 2 0.916667 0.833333 0.00466667
139 2 0.916667 0.583333 0.0416667
140 2 0.916667 0.583333 0.00466667
59 1 0.0833333 0.416667 0.0601667
60 2 0.0833333 0.416667 0.088
10 2 0.166667 0.0833332 0.0786667
11 1 0.0833333 0.166667 0.0601667
12 2 0.0833333 0.166667 0.088
58 2 0.166667 0.333333 0.0786667
23 1 0.333333 0.166667 0.0601667
24 2 0.333333 0.166667 0.088
71 1 0.333333 0.416667 0.0601667
72 2 0.333333 0.416667 0.088
22 2 0.416667 0.0833332 0.0786667
70 2 0.416667 0.333333 0.0786667
35 1 0.583333 0.166667 0.0601667
36 2 0.583333 0.166667 0.088
82 2 0.666667 0.333333 0.0786667
83 1 0.583333 0.416667 0.0601667
84 2 0.583333 0.416667 0.088
95 1 0.833333 0.416667 0.0601667
96 2 0.833333 0.416667 0.088
34 2 0.666667 0.0833332 0.0786667
46 2 0.916667 0.0833332 0.0786667
47 1 0.833333 0.166667 0.0601667
48 2 0.833333 0.166667 0.088
94 2 0.916667 0.333333 0.0786667
107 1 0.0833333 0.666667 0.0601667
108 2 0.0833333 0.666667 0.088
154 2 0.166667 0.833333 0.0786667
155 1 0.0833333 0.916667 0.0601667
156 2 0.0833333 0.916667 0.088
167 1 0.333333 0.916667 0.0601667
168 2 0.333333 0.916667 0.088
106 2 0.166667 0.583333 0.0786667
118 2 0.416667 0.583333 0.0786667
119 1 0.333333 0.666667 0.0601667
120 2 0.333333 0.666667 0.088
166 2 0.416667 0.833333 0.0786667
131 1 0.583333 0.666667 0.0601667
132 2 0.583333 0.666667 0.088
179 1 0.583333 0.916667 0.0601667
180 2 0.583333 0.916667 0.088
130 2 0.666667 0.583333 0.0786667
178 2 0.666667 0.833333 0.0786667
143 1 0.833333 0.666667 0.0601667
144 2 0.833333 0.666667 0.088
190 2 0.916667 0.833333 0.0786667
191 1 0.833333 0.916667 0.0601667
192 2 0.833333 0.916667 0.088
142 2 0.916667 0.583333 0.0786667
51 2 0.0833333 0.416667 0.125
3 2 0.0833333 0.166667 0.125
6 2 0 0 0.125
9 1 0.166667 0.0833332 0.1065
54 2 -6.65303e-18 0.25 0.125
57 1 0.166667 0.333333 0.1065
15 2 0.333333 0.166667 0.125
63 2 0.333333 0.416667 0.125
66 2 0.25 0.25 0.125
18 2 0.25 0 0.125
21 1 0.416667 0.0833332 0.1065
69 1 0.416667 0.333333 0.1065
27 2 0.583333 0.166667 0.125
30 2 0.5 0 0.125
75 2 0.583333 0.416667 0.125
78 2 0.5 0.25 0.125
81 1 0.666667 0.333333 0.1065
87 2 0.833333 0.416667 0.125
33 1 0.666667 0.0833332 0.1065
39 2 0.833333 0.166667 0.125
42 2 0.75 0 0.125
45 1 0.916667 0.0833332 0.1065
90 2 0.75 0.25 0.125
93 1 0.916667 0.333333 0.1065
99 2 0.0833333 0.666667 0.125
102 2 -1.33061e-17 0.5 0.125
147 2 0.0833333 0.916667 0.125
150 2 -1.67875e-18 0.75 0.125
153 1 0.166667 0.833333 0.1065
159 2 0.333333 0.916667 0.125
105 1 0.166667 0.583333 0.1065
111 2 0.333333 0.666667 0.125
114 2 0.25 0.5 0.125
117 1 0.416667 0.583333 0.1065
162 2 0.25 0.75 0.125
165 1 0.416667 0.833333 0.1065
123 2 0.583333 0.666667 0.125
171 2 0.583333 0.916667 0.125
174 2 0.5 0.75 0.125
126 2 0.5 0.5 0.125
129 1 0.666667 0.583333 0.1065
177 1 0.666667 0.833333 0.1065
135 2 0.833333 0.666667 0.125
138 2 0.75 0.5 0.125
183 2 0.833333 0.916667 0.125
186 2 0.75 0.75 0.125
189 1 0.916667 0.833333 0.1065
141 1 0.916667 0.583333 0.1065
52 2 0.0833333 0.416667 0.162
4 2 0.0833333 0.166667 0.162
5 1 0.166667 0.0833332 0.1435
200 2 0.166667 0.0833332 0.171333
53 1 0.166667 0.333333 0.1435
248 2 0.166667 0.333333 0.171333
16 2 0.333333 0.166667 0.162
64 2 0.333333 0.416667 0.162
17 1 0.416667 0.0833332 0.1435
212 2 0.416667 0.0833332 0.171333
65 1 0.416667 0.333333 0.1435
260 2 0.416667 0.333333 0.171333
28 2 0.583333 0.166667 0.162
76 2 0.583333 0.416667 0.162
77 1 0.666667 0.333333 0.1435
272 2 0.666667 0.333333 0.171333
88 2 0.833333 0.416667 0.162
29 1 0.666667 0.0833332 0.1435
224 2 0.666667 0.0833332 0.171333
40 2 0.833333 0.166667 0.162
41 1 0.916667 0.0833332 0.1435
236 2 0.916667 0.0833332 0.171333
89 1 0.916667 0.333333 0.1435
284 2 0.916667 0.333333 0.171333
100 2 0.0833333 0.666667 0.162
148 2 0.0833333 0.916667 0.162
149 1 0.166667 0.833333 0.1435
344 2 0.166667 0.833333 0.171333
160 2 0.333333 0.916667 0.162
101 1 0.166667 0.583333 0.1435
296 2 0.166667 0.583333 0.171333
112 2 0.333333 0.666667 0.162
113 1 0.416667 0.583333 0.1435
308 2 0.416667 0.583333 0.171333
161 1 0.416667 0.833333 0.1435
356 2 0.416667 0.833333 0.171333
124 2 0.583333 0.666667 0.162
172 2 0.583333 0.916667 0.162
125 1 0.666667 0.583333 0.1435
320 2 0.666667 0.583333 0.171333
173 1 0.666667 0.833333 0.1435
368 2 0.666667 0.833333 0.171333
136 2 0.833333 0.666667 0.162
184 2 0.833333 0.916667 0.162
185 1 0.916667 0.833333 0.1435
380 2 0.916667 0.833333 0.171333
137 1 0.916667 0.583333 0.1435
332 2 0.916667 0.583333 0.171333
241 1 0.0833333 0.416667 0.189833
251 1 0.0833333 0.416667 0.226833
193 1 0.0833333 0.166667 0.189833
194 2 0.25 0.25 0.208333
199 2 0.166667 0.0833332 0.208333
203 1 0.0833333 0.166667 0.226833
247 2 0.166667 0.333333 0.208333
205 1 0.333333 0.166667 0.189833
215 1 0.333333 0.166667 0.226833
253 1 0.333333 0.416667 0.189833
263 1 0.333333 0.416667 0.226833
230 2 -6.65303e-18 0.25 0.208333
374 2 0 0 0.208333
338 2 0.25 0 0.208333
206 2 0.5 0.25 0.208333
211 2 0.416667 0.0833332 0.208333
259 2 0.416667 0.333333 0.208333
350 2 0.5 0 0.208333
217 1 0.583333 0.166667 0.189833
218 2 0.75 0.25 0.208333
227 1 0.583333 0.166667 0.226833
265 1 0.583333 0.416667 0.189833
271 2 0.666667 0.333333 0.208333
275 1 0.583333 0.416667 0.226833
277 1 0.833333 0.416667 0.189833
287 1 0.833333 0.416667 0.226833
223 2 0.666667 0.0833332 0.208333
362 2 0.75 0 0.208333
229 1 0.833333 0.166667 0.189833
235 2 0.916667 0.0833332 0.208333
239 1 0.833333 0.166667 0.226833
283 2 0.916667 0.333333 0.208333
289 1 0.0833333 0.666667 0.189833
299 1 0.0833333 0.666667 0.226833
337 1 0.0833333 0.916667 0.189833
343 2 0.166667 0.833333 0.208333
347 1 0.0833333 0.916667 0.226833
349 1 0.333333 0.916667 0.189833
359 1 0.333333 0.916667 0.226833
278 2 2.10079e-16 0.5 0.208333
326 2 2.21706e-16 0.75 0.208333
242 2 0.25 0.5 0.208333
290 2 0.25 0.75 0.208333
295 2 0.166667 0.583333 0.208333
301 1 0.333333 0.666667 0.189833
302 2 0.5 0.75 0.208333
307 2 0.416667 0.583333 0.208333
311 1 0.333333 0.666667 0.226833
355 2 0.416667 0.833333 0.208333
313 1 0.583333 0.666667 0.189833
323 1 0.583333 0.666667 0.226833
361 1 0.583333 0.916667 0.189833
371 1 0.583333 0.916667 0.226833
254 2 0.5 0.5 0.208333
266 2 0.75 0.5 0.208333
314 2 0.75 0.75 0.208333
319 2 0.666667 0.583333 0.208333
367 2 0.666667 0.833333 0.208333
325 1 0.833333 0.666667 0.189833
335 1 0.833333 0.666667 0.226833
373 1 0.833333 0.916667 0.189833
379 2 0.916667 0.833333 0.208333
383 1 0.833333 0.916667 0.226833
331 2 0.916667 0.583333 0.208333
252 2 0.0833333 0.416667 0.254667
202 2 0.166667 0.0833332 0.245333
204 2 0.0833333 0.166667 0.254667
250 2 0.166667 0.333333 0.245333
216 2 0.333333 0.166667 0.254667
264 2 0.333333 0.416667 0.254667
214 2 0.416667 0.0833332 0.245333
262 2 0.416667 0.333333 0.245333
228 2 0.583333 0.166667 0.254667
274 2 0.666667 0.333333 0.245333
276 2 0.583333 0.416667 0.254667
288 2 0.833333 0.416667 0.254667
226 2 0.666667 0.0833332 0.245333
238 2 0.916667 0.0833332 0.245333
240 2 0.833333 0.166667 0.254667
286 2 0.916667 0.333333 0.245333
300 2 0.0833333 0.666667 0.254667
346 2 0.166667 0.833333 0.245333
348 2 0.0833333 0.916667 0.254667
360 2 0.333333 0.916667 0.254667
298 2 0.166667 0.583333 0.245333
310 2 0.416667 0.583333 0.245333
312 2 0.333333 0.666667 0.254667
358 2 0.416667 0.833333 0.245333
324 2 0.583333 0.666667 0.254667
372 2 0.583333 0.916667 0.254667
322 2 0.666667 0.583333 0.245333
370 2 0.666667 0.833333 0.245333
336 2 0.833333 0.666667 0.254667
382 2 0.916667 0.833333 0.245333
384 2 0.833333 0.916667 0.254667
334 2 0.916667 0.583333 0.245333
243 2 0.0833333 0.416667 0.291667
195 2 0.0833333 0.166667 0.291667
197 1 0.166667 0.0833332 0.310167
198 2 0 0 0.291667
201 1 0.166667 0.0833332 0.273167
245 1 0.166667 0.333333 0.310167
246 2 -6.65303e-18 0.25 0.291667
249 1 0.166667 0.333333 0.273167
207 2 0.333333 0.166667 0.291667
255 2 0.333333 0.416667 0.291667
258 2 0.25 0.25 0.291667
209 1 0.416667 0.0833332 0.310167
210 2 0.25 0 0.291667
213 1 0.416667 0.0833332 0.273167
257 1 0.416667 0.333333 0.310167
261 1 0.416667 0.333333 0.273167
219 2 0.583333 0.166667 0.291667
222 2 0.5 0 0.291667
267 2 0.583333 0.416667 0.291667
269 1 0.666667 0.333333 0.310167
270 2 0.5 0.25 0.291667
273 1 0.666667 0.333333 0.273167
279 2 0.833333 0.416667 0.291667
221 1 0.666667 0.0833332 0.310167
225 1 0.666667 0.0833332 0.273167
231 2 0.833333 0.166667 0.291667
233 1 0.916667 0.0833332 0.310167
234 2 0.75 0 0.291667
237 1 0.916667 0.0833332 0.273167
281 1 0.916667 0.333333 0.310167
282 2 0.75 0.25 0.291667
285 1 0.916667 0.333333 0.273167
291 2 0.0833333 0.666667 0.291667
294 2 -1.33061e-17 0.5 0.291667
339 2 0.0833333 0.916667 0.291667
341 1 0.166667 0.833333 0.310167
342 2 -1.67875e-18 0.75 0.291667
345 1 0.166667 0.833333 0.273167
351 2 0.333333 0.916667 0.291667
293 1 0.166667 0.583333 0.310167
297 1 0.166667 0.583333 0.273167
303 2 0.333333 0.666667 0.291667
305 1 0.416667 0.583333 0.310167
306 2 0.25 0.5 0.291667
309 1 0.416667 0.583333 0.273167
353 1 0.416667 0.833333 0.310167
354 2 0.25 0.75 0.291667
357 1 0.416667 0.833333 0.273167
315 2 0.583333 0.666667 0.291667
363 2 0.583333 0.916667 0.291667
366 2 0.5 0.75 0.291667
317 1 0.666667 0.583333 0.310167
318 2 0.5 0.5 0.291667
321 1 0.666667 0.583333 0.273167
365 1 0.666667 0.833333 0.310167
369 1 0.666667 0.833333 0.273167
327 2 0.833333 0.666667 0.291667
330 2 0.75 0.5 0.291667
375 2 0.833333 0.916667 0.291667
377 1 0.916667 0.833333 0.310167
378 2 0.75 0.75 0.291667
381 1 0.916667 0.833333 0.273167
329 1 0.916667 0.583333 0.310167
333 1 0.916667 0.583333 0.273167
244 2 0.0833333 0.416667 0.328667
433 1 0.0833333 0.416667 0.3565
196 2 0.0833333 0.166667 0.328667
385 1 0.0833333 0.166667 0.3565
392 2 0.166667 0.0833332 0.338
440 2 0.166667 0.333333 0.338
208 2 0.333333 0.166667 0.328667
397 1 0.333333 0.166667 0.3565
256 2 0.333333 0.416667 0.328667
445 1 0.333333 0.416667 0.3565
404 2 0.416667 0.0833332 0.338
452 2 0.416667 0.333333 0.338
220 2 0.583333 0.166667 0.328667
409 1 0.583333 0.166667 0.3565
268 2 0.583333 0.416667 0.328667
457 1 0.583333 0.416667 0.3565
464 2 0.666667 0.333333 0.338
280 2 0.833333 0.416667 0.328667
469 1 0.833333 0.416667 0.3565
416 2 0.666667 0.0833332 0.338
232 2 0.833333 0.166667 0.328667
421 1 0.833333 0.166667 0.3565
428 2 0.916667 0.0833332 0.338
476 2 0.916667 0.333333 0.338
292 2 0.0833333 0.666667 0.328667
481 1 0.0833333 0.666667 0.3565
340 2 0.0833333 0.916667 0.328667
529 1 0.0833333 0.916667 0.3565
536 2 0.166667 0.833333 0.338
352 2 0.333333 0.916667 0.328667
541 1 0.333333 0.916667 0.3565
488 2 0.166667 0.583333 0.338
304 2 0.333333 0.666667 0.328667
493 1 0.333333 0.666667 0.3565
500 2 0.416667 0.583333 0.338
548 2 0.416667 0.833333 0.338
316 2 0.583333 0.666667 0.328667
505 1 0.583333 0.666667 0.3565
364 2 0.583333 0.916667 0.328667
553 1 0.583333 0.916667 0.3565
512 2 0.666667 0.583333 0.338
560 2 0.666667 0.833333 0.338
328 2 0.833333 0.666667 0.328667
517 1 0.833333 0.666667 0.3565
376 2 0.833333 0.916667 0.328667
565 1 0.833333 0.916667 0.3565
572 2 0.916667 0.833333 0.338
524 2 0.916667 0.583333 0.338
443 1 0.0833333 0.416667 0.3935
386 2 0.25 0.25 0.375
391 2 0.166667 0.0833332 0.375
395 1 0.0833333 0.166667 0.3935
439 2 0.166667 0.333333 0.375
407 1 0.333333 0.166667 0.3935
455 1 0.333333 0.416667 0.3935
422 2 -6.65303e-18 0.25 0.375
566 2 0 0 0.375
530 2 0.25 0 0.375
398 2 0.5 0.25 0.375
403 2 0.416667 0.0833332 0.375
451 2 0.416667 0.333333 0.375
542 2 0.5 0 0.375
410 2 0.75 0.25 0.375
419 1 0.583333 0.166667 0.3935
463 2 0.666667 0.333333 0.375
467 1 0.583333 0.416667 0.3935
479 1 0.833333 0.416667 0.3935
415 2 0.666667 0.0833332 0.375
554 2 0.75 0 0.375
427 2 0.916667 0.0833332 0.375
431 1 0.833333 0.166667 0.3935
475 2 0.916667 0.333333 0.375
491 1 0.0833333 0.666667 0.3935
535 2 0.166667 0.833333 0.375
539 1 0.0833333 0.916667 0.3935
551 1 0.333333 0.916667 0.3935
470 2 2.10079e-16 0.5 0.375
518 2 2.21706e-16 0.75 0.375
434 2 0.25 0.5 0.375
482 2 0.25 0.75 0.375
487 2 0.166667 0.583333 0.375
494 2 0.5 0.75 0.375
499 2 0.416667 0.583333 0.375
503 1 0.333333 0.666667 0.3935
547 2 0.416667 0.833333 0.375
515 1 0.583333 0.666667 0.3935
563 1 0.583333 0.916667 0.3935
446 2 0.5 0.5 0.375
458 2 0.75 0.5 0.375
506 2 0.75 0.75 0.375
511 2 0.666667 0.583333 0.375
559 2 0.666667 0.833333 0.375
527 1 0.833333 0.666667 0.3935
571 2 0.916667 0.833333 0.375
575 1 0.833333 0.916667 0.3935
523 2 0.916667 0.583333 0.375
444 2 0.0833333 0.416667 0.421333
393 1 0.166667 0.0833332 0.439833
394 2 0.166667 0.0833332 0.412
396 2 0.0833333 0.166667 0.421333
441 1 0.166667 0.333333 0.439833
442 2 0.166667 0.333333 0.412
408 2 0.333333 0.166667 0.421333
456 2 0.333333 0.416667 0.421333
405 1 0.416667 0.0833332 0.439833
406 2 0.416667 0.0833332 0.412
453 1 0.416667 0.333333 0.439833
454 2 0.416667 0.333333 0.412
420 2 0.583333 0.166667 0.421333
465 1 0.666667 0.333333 0.439833
466 2 0.666667 0.333333 0.412
468 2 0.583333 0.416667 0.421333
480 2 0.833333 0.416667 0.421333
417 1 0.666667 0.0833332 0.439833
418 2 0.666667 0.0833332 0.412
429 1 0.916667 0.0833332 0.439833
430 2 0.916667 0.0833332 0.412
432 2 0.833333 0.166667 0.421333
477 1 0.916667 0.333333 0.439833
478 2 0.916667 0.333333 0.412
492 2 0.0833333 0.666667 0.421333
537 1 0.166667 0.833333 0.439833
538 2 0.166667 0.833333 0.412
540 2 0.0833333 0.916667 0.421333
552 2 0.333333 0.916667 0.421333
489 1 0.166667 0.583333 0.439833
490 2 0.166667 0.583333 0.412
501 1 0.416667 0.583333 0.439833
502 2 0.416667 0.583333 0.412
504 2 0.333333 0.666667 0.421333
549 1 0.416667 0.833333 0.439833
550 2 0.416667 0.833333 0.412
516 2 0.583333 0.666667 0.421333
564 2 0.583333 0.916667 0.421333
513 1 0.666667 0.583333 0.439833
514 2 0.666667 0.583333 0.412
561 1 0.666667 0.833333 0.439833
562 2 0.666667 0.833333 0.412
528 2 0.833333 0.666667 0.421333
573 1 0.916667 0.833333 0.439833
574 2 0.916667 0.833333 0.412
576 2 0.833333 0.916667 0.421333
525 1 0.916667 0.583333 0.439833
526 2 0.916667 0.583333 0.412
435 2 0.0833333 0.416667 0.458333
436 2 0.0833333 0.416667 0.495333
387 2 0.0833333 0.166667 0.458333
388 2 0.0833333 0.166667 0.495333
389 1 0.166667 0.0833332 0.476833
390 2 0 0 0.458333
437 1 0.166667 0.333333 0.476833
438 2 -6.65303e-18 0.25 0.458333
399 2 0.333333 0.166667 0.458333
400 2 0.333333 0.166667 0.495333
447 2 0.333333 0.416667 0.458333
448 2 0.333333 0.416667 0.495333
450 2 0.25 0.25 0.458333
401 1 0.416667 0.0833332 0.476833
402 2 0.25 0 0.458333
449 1 0.416667 0.333333 0.476833
411 2 0.583333 0.166667 0.458333
412 2 0.583333 0.166667 0.495333
414 2 0.5 0 0.458333
459 2 0.583333 0.416667 0.458333
460 2 0.583333 0.416667 0.495333
461 1 0.666667 0.333333 0.476833
462 2 0.5 0.25 0.458333
471 2 0.833333 0.416667 0.458333
472 2 0.833333 0.416667 0.495333
413 1 0.666667 0.0833332 0.476833
423 2 0.833333 0.166667 0.458333
424 2 0.833333 0.166667 0.495333
425 1 0.916667 0.0833332 0.476833
426 2 0.75 0 0.458333
473 1 0.916667 0.333333 0.476833
474 2 0.75 0.25 0.458333
483 2 0.0833333 0.666667 0.458333
484 2 0.0833333 0.666667 0.495333
486 2 -1.33061e-17 0.5 0.458333
531 2 0.0833333 0.916667 0.458333
532 2 0.0833333 0.916667 0.495333
533 1 0.166667 0.833333 0.476833
534 2 -1.67875e-18 0.75 0.458333
543 2 0.333333 0.916667 0.458333
544 2 0.333333 0.916667 0.495333
485 1 0.166667 0.583333 0.476833
495 2 0.333333 0.666667 0.458333
496 2 0.333333 0.666667 0.495333
497 1 0.416667 0.583333 0.476833
498 2 0.25 0.5 0.458333
545 1 0.416667 0.833333 0.476833
546 2 0.25 0.75 0.458333
507 2 0.583333 0.666667 0.458333
508 2 0.583333 0.666667 0.495333
555 2 0.583333 0.916667 0.458333
556 2 0.583333 0.916667 0.495333
558 2 0.5 0.75 0.458333
509 1 0.666667 0.583333 0.476833
510 2 0.5 0.5 0.458333
557 1 0.666667 0.833333 0.476833
519 2 0.833333 0.666667 0.458333
520 2 0.833333 0.666667 0.495333
522 2 0.75 0.5 0.458333
567 2 0.833333 0.916667 0.458333
568 2 0.833333 0.916667 0.495333
569 1 0.916667 0.833333 0.476833
570 2 0.75 0.75 0.458333
521 1 0.916667 0.583333 0.476833
625 1 0.0833333 0.416667 0.523167
577 1 0.0833333 0.166667 0.523167
578 2 0.25 0.25 0.541667
583 2 0.166667 0.0833332 0.541667
584 2 0.166667 0.0833332 0.504667
631 2 0.166667 0.333333 0.541667
632 2 0.166667 0.333333 0.504667
589 1 0.333333 0.166667 0.523167
637 1 0.333333 0.416667 0.523167
614 2 -6.65303e-18 0.25 0.541667
758 2 0 0 0.541667
722 2 0.25 0 0.541667
590 2 0.5 0.25 0.541667
595 2 0.416667 0.0833332 0.541667
596 2 0.416667 0.0833332 0.504667
643 2 0.416667 0.333333 0.541667
644 2 0.416667 0.333333 0.504667
734 2 0.5 0 0.541667
601 1 0.583333 0.166667 0.523167
602 2 0.75 0.25 0.541667
649 1 0.583333 0.416667 0.523167
655 2 0.666667 0.333333 0.541667
656 2 0.666667 0.333333 0.504667
661 1 0.833333 0.416667 0.523167
607 2 0.666667 0.0833332 0.541667
608 2 0.666667 0.0833332 0.504667
746 2 0.75 0 0.541667
613 1 0.833333 0.166667 0.523167
619 2 0.916667 0.0833332 0.541667
620 2 0.916667 0.0833332 0.504667
667 2 0.916667 0.333333 0.541667
668 2 0.916667 0.333333 0.504667
673 1 0.0833333 0.666667 0.523167
721 1 0.0833333 0.916667 0.523167
727 2 0.166667 0.833333 0.541667
728 2 0.166667 0.833333 0.504667
733 1 0.333333 0.916667 0.523167
662 2 2.10079e-16 0.5 0.541667
710 2 2.21706e-16 0.75 0.541667
626 2 0.25 0.5 0.541667
674 2 0.25 0.75 0.541667
679 2 0.166667 0.583333 0.541667
680 2 0.166667 0.583333 0.504667
685 1 0.333333 0.666667 0.523167
686 2 0.5 0.75 0.541667
691 2 0.416667 0.583333 0.541667
692 2 0.416667 0.583333 0.504667
739 2 0.416667 0.833333 0.541667
740 2 0.416667 0.833333 0.504667
697 1 0.583333 0.666667 0.523167
745 1 0.583333 0.916667 0.523167
638 2 0.5 0.5 0.541667
650 2 0.75 0.5 0.541667
698 2 0.75 0.75 0.541667
703 2 0.666667 0.583333 0.541667
704 2 0.666667 0.583333 0.504667
751 2 0.666667 0.833333 0.541667
752 2 0.666667 0.833333 0.504667
709 1 0.833333 0.666667 0.523167
757 1 0.833333 0.916667 0.523167
763 2 0.916667 0.833333 0.541667
764 2 0.916667 0.833333 0.504667
715 2 0.916667 0.583333 0.541667
716 2 0.916667 0.583333 0.504667
635 1 0.0833333 0.416667 0.560167
636 2 0.0833333 0.416667 0.588
586 2 0.166667 0.0833332 0.578667
587 1 0.0833333 0.166667 0.560167
588 2 0.0833333 0.166667 0.588
634 2 0.166667 0.333333 0.578667
599 1 0.333333 0.166667 0.560167
600 2 0.333333 0.166667 0.588
647 1 0.333333 0.416667 0.560167
648 2 0.333333 0.416667 0.588
598 2 0.416667 0.0833332 0.578667
646 2 0.416667 0.333333 0.578667
611 1 0.583333 0.166667 0.560167
612 2 0.583333 0.166667 0.588
658 2 0.666667 0.333333 0.578667
659 1 0.583333 0.416667 0.560167
660 2 0.583333 0.416667 0.588
671 1 0.833333 0.416667 0.560167
672 2 0.833333 0.416667 0.588
610 2 0.666667 0.0833332 0.578667
622 2 0.916667 0.0833332 0.578667
623 1 0.833333 0.166667 0.560167
624 2 0.833333 0.166667 0.588
670 2 0.916667 0.333333 0.578667
683 1 0.0833333 0.666667 0.560167
684 2 0.0833333 0.666667 0.588
730 2 0.166667 0.833333 0.578667
731 1 0.0833333 0.916667 0.560167
732 2 0.0833333 0.916667 0.588
743 1 0.333333 0.916667 0.560167
744 2 0.333333 0.916667 0.588
682 2 0.166667 0.583333 0.578667
694 2 0.416667 0.583333 0.578667
695 1 0.333333 0.666667 0.560167
696 2 0.333333 0.666667 0.588
742 2 0.416667 0.833333 0.578667
707 1 0.583333 0.666667 0.560167
708 2 0.583333 0.666667 0.588
755 1 0.583333 0.916667 0.560167
756 2 0.583333 0.916667 0.588
706 2 0.666667 0.583333 0.578667
754 2 0.666667 0.833333 0.578667
719 1 0.833333 0.666667 0.560167
720 2 0.833333 0.666667 0.588
766 2 0.916667 0.833333 0.578667
767 1 0.833333 0.916667 0.560167
768 2 0.833333 0.916667 0.588
718 2 0.916667 0.583333 0.578667
627 2 0.0833333 0.416667 0.625
579 2 0.0833333 0.166667 0.625
582 2 0 0 0.625
585 1 0.166667 0.0833332 0.6065
630 2 -6.65303e-18 0.25 0.625
633 1 0.166667 0.333333 0.6065
591 2 0.333333 0.166667 0.625
639 2 0.333333 0.416667 0.625
642 2 0.25 0.25 0.625
594 2 0.25 0 0.625
597 1 0.416667 0.0833332 0.6065
645 1 0.416667 0.333333 0.6065
603 2 0.583333 0.166667 0.625
606 2 0.5 0 0.625
651 2 0.583333 0.416667 0.625
654 2 0.5 0.25 0.625
657 1 0.666667 0.333333 0.6065
663 2 0.833333 0.416667 0.625
609 1 0.666667 0.0833332 0.6065
615 2 0.833333 0.166667 0.625
618 2 0.75 0 0.625
621 1 0.916667 0.0833332 0.6065
666 2 0.75 0.25 0.625
669 1 0.916667 0.333333 0.6065
675 2 0.0833333 0.666667 0.625
678 2 -1.33061e-17 0.5 0.625
723 2 0.0833333 0.916667 0.625
726 2 -1.67875e-18 0.75 0.625
729 1 0.166667 0.833333 0.6065
735 2 0.333333 0.916667 0.625
681 1 0.166667 0.583333 0.6065
687 2 0.333333 0.666667 0.625
690 2 0.25 0.5 0.625
693 1 0.416667 0.583333 0.6065
738 2 0.25 0.75 0.625
741 1 0.416667 0.833333 0.6065
699 2 0.583333 0.666667 0.625
747 2 0.583333 0.916667 0.625
750 2 0.5 0.75 0.625
702 2 0.5 0.5 0.625
705 1 0.666667 0.583333 0.6065
753 1 0.666667 0.833333 0.6065
711 2 0.833333 0.666667 0.625
714 2 0.75 0.5 0.625
759 2 0.833333 0.916667 0.625
762 2 0.75 0.75 0.625
765 1 0.916667 0.833333 0.6065
717 1 0.916667 0.583333 0.6065
628 2 0.0833333 0.416667 0.662
580 2 0.0833333 0.166667 0.662
581 1 0.166667 0.0833332 0.6435
776 2 0.166667 0.0833332 0.671333
629 1 0.166667 0.333333 0.6435
824 2 0.166667 0.333333 0.671333
592 2 0.333333 0.166667 0.662
640 2 0.333333 0.416667 0.662
593 1 0.416667 0.0833332 0.6435
788 2 0.416667 0.0833332 0.671333
641 1 0.416667 0.333333 0.6435
836 2 0.416667 0.333333 0.671333
604 2 0.583333 0.166667 0.662
652 2 0.583333 0.416667 0.662
653 1 0.666667 0.333333 0.6435
848 2 0.666667 0.333333 0.671333
664 2 0.833333 0.416667 0.662
605 1 0.666667 0.0833332 0.6435
800 2 0.666667 0.0833332 0.671333
616 2 0.833333 0.166667 0.662
617 1 0.916667 0.0833332 0.6435
812 2 0.916667 0.0833332 0.671333
665 1 0.916667 0.333333 0.6435
860 2 0.916667 0.333333 0.671333
676 2 0.0833333 0.666667 0.662
724 2 0.0833333 0.916667 0.662
725 1 0.166667 0.833333 0.6435
920 2 0.166667 0.833333 0.671333
736 2 0.333333 0.916667 0.662
677 1 0.166667 0.583333 0.6435
872 2 0.166667 0.583333 0.671333
688 2 0.333333 0.666667 0.662
689 1 0.416667 0.583333 0.6435
884 2 0.416667 0.583333 0.671333
737 1 0.416667 0.833333 0.6435
932 2 0.416667 0.833333 0.671333
700 2 0.583333 0.666667 0.662
748 2 0.583333 0.916667 0.662
701 1 0.666667 0.583333 0.6435
896 2 0.666667 0.583333 0.671333
749 1 0.666667 0.833333 0.6435
944 2 0.666667 0.833333 0.671333
712 2 0.833333 0.666667 0.662
760 2 0.833333 0.916667 0.662
761 1 0.916667 0.833333 0.6435
956 2 0.916667 0.833333 0.671333
713 1 0.916667 0.583333 0.6435
908 2 0.916667 0.583333 0.671333
817 1 0.0833333 0.416667 0.689833
827 1 0.0833333 0.416667 0.726833
769 1 0.0833333 0.166667 0.689833
770 2 0.25 0.25 0.708333
775 2 0.166667 0.0833332 0.708333
779 1 0.0833333 0.166667 0.726833
823 2 0.166667 0.333333 0.708333
781 1 0.333333 0.166667 0.689833
791 1 0.333333 0.166667 0.726833
829 1 0.333333 0.416667 0.689833
839 1 0.333333 0.416667 0.726833
806 2 -6.65303e-18 0.25 0.708333
950 2 0 0 0.708333
914 2 0.25 0 0.708333
782 2 0.5 0.25 0.708333
787 2 0.416667 0.0833332 0.708333
835 2 0.416667 0.333333 0.708333
926 2 0.5 0 0.708333
793 1 0.583333 0.166667 0.689833
794 2 0.75 0.25 0.708333
803 1 0.583333 0.166667 0.726833
841 1 0.583333 0.416667 0.689833
847 2 0.666667 0.333333 0.708333
851 1 0.583333 0.416667 0.726833
853 1 0.833333 0.416667 0.689833
863 1 0.833333 0.416667 0.726833
799 2 0.666667 0.0833332 0.708333
938 2 0.75 0 0.708333
805 1 0.833333 0.166667 0.689833
811 2 0.916667 0.0833332 0.708333
815 1 0.833333 0.166667 0.726833
859 2 0.916667 0.333333 0.708333
865 1 0.0833333 0.666667 0.689833
875 1 0.0833333 0.666667 0.726833
913 1 0.0833333 0.916667 0.689833
919 2 0.166667 0.833333 0.708333
923 1 0.0833333 0.916667 0.726833
925 1 0.333333 0.916667 0.689833
935 1 0.333333 0.916667 0.726833
854 2 2.10079e-16 0.5 0.708333
902 2 2.21706e-16 0.75 0.708333
818 2 0.25 0.5 0.708333
866 2 0.25 0.75 0.708333
871 2 0.166667 0.583333 0.708333
877 1 0.333333 0.666667 0.689833
878 2 0.5 0.75 0.708333
883 2 0.416667 0.583333 0.708333
887 1 0.333333 0.666667 0.726833
931 2 0.416667 0.833333 0.708333
889 1 0.583333 0.666667 0.689833
899 1 0.583333 0.666667 0.726833
937 1 0.583333 0.916667 0.689833
947 1 0.583333 0.916667 0.726833
830 2 0.5 0.5 0.708333
842 2 0.75 0.5 0.708333
890 2 0.75 0.75 0.708333
895 2 0.666667 0.583333 0.708333
943 2 0.666667 0.833333 0.708333
901 1 0.833333 0.666667 0.689833
911 1 0.833333 0.666667 0.726833
949 1 0.833333 0.916667 0.689833
955 2 0.916667 0.833333 0.708333
959 1 0.833333 0.916667 0.726833
907 2 0.916667 0.583333 0.708333
828 2 0.0833333 0.416667 0.754667
778 2 0.166667 0.0833332 0.745333
780 2 0.0833333 0.166667 0.754667
826 2 0.166667 0.333333 0.745333
792 2 0.333333 0.166667 0.754667
840 2 0.333333 0.416667 0.754667
790 2 0.416667 0.0833332 0.745333
838 2 0.416667 0.333333 0.745333
804 2 0.583333 0.166667 0.754667
850 2 0.666667 0.333333 0.745333
852 2 0.583333 0.416667 0.754667
864 2 0.833333 0.416667 0.754667
802 2 0.666667 0.0833332 0.745333
814 2 0.916667 0.0833332 0.745333
816 2 0.833333 0.166667 0.754667
862 2 0.916667 0.333333 0.745333
876 2 0.0833333 0.666667 0.754667
922 2 0.166667 0.833333 0.745333
924 2 0.0833333 0.916667 0.754667
936 2 0.333333 0.916667 0.754667
874 2 0.166667 0.583333 0.745333
886 2 0.416667 0.583333 0.745333
888 2 0.333333 0.666667 0.754667
934 2 0.416667 0.833333 0.745333
900 2 0.583333 0.666667 0.754667
948 2 0.583333 0.916667 0.754667
898 2 0.666667 0.583333 0.745333
946 2 0.666667 0.833333 0.745333
912 2 0.833333 0.666667 0.754667
958 2 0.916667 0.833333 0.745333
960 2 0.833333 0.916667 0.754667
910 2 0.916667 0.583333 0.745333
819 2 0.0833333 0.416667 0.791667
771 2 0.0833333 0.166667 0.791667
773 1 0.166667 0.0833332 0.810167
774 2 0 0 0.791667
777 1 0.166667 0.0833332 0.773167
821 1 0.166667 0.333333 0.810167
822 2 -6.65303e-18 0.25 0.791667
825 1 0.166667 0.333333 0.773167
783 2 0.333333 0.166667 0.791667
831 2 0.333333 0.416667 0.791667
834 2 0.25 0.25 0.791667
785 1 0.416667 0.0833332 0.810167
786 2 0.25 0 0.791667
789 1 0.416667 0.0833332 0.773167
833 1 0.416667 0.333333 0.810167
837 1 0.416667 0.333333 0.773167
795 2 0.583333 0.166667 0.791667
798 2 0.5 0 0.791667
843 2 0.583333 0.416667 0.791667
845 1 0.666667 0.333333 0.810167
846 2 0.5 0.25 0.791667
849 1 0.666667 0.333333 0.773167
855 2 0.833333 0.416667 0.791667
797 1 0.666667 0.0833332 0.810167
801 1 0.666667 0.0833332 0.773167
807 2 0.833333 0.166667 0.791667
809 1 0.916667 0.0833332 0.810167
810 2 0.75 0 0.791667
813 1 0.916667 0.0833332 0.773167
857 1 0.916667 0.333333 0.810167
858 2 0.75 0.25 0.791667
861 1 0.916667 0.333333 0.773167
867 2 0.0833333 0.666667 0.791667
870 2 -1.33061e-17 0.5 0.791667
915 2 0.0833333 0.916667 0.791667
917 1 0.166667 0.833333 0.810167
918 2 -1.67875e-18 0.75 0.791667
921 1 0.166667 0.833333 0.773167
927 2 0.333333 0.916667 0.791667
869 1 0.166667 0.583333 0.810167
873 1 0.166667 0.583333 0.773167
879 2 0.333333 0.666667 0.791667
881 1 0.416667 0.583333 0.810167
882 2 0.25 0.5 0.791667
885 1 0.416667 0.583333 0.773167
929 1 0.416667 0.833333 0.810167
930 2 0.25 0.75 0.791667
933 1 0.416667 0.833333 0.773167
891 2 0.583333 0.666667 0.791667
939 2 0.583333 0.916667 0.791667
942 2 0.5 0.75 0.791667
893 1 0.666667 0.583333 0.810167
894 2 0.5 0.5 0.791667
897 1 0.666667 0.583333 0.773167
941 1 0.666667 0.833333 0.810167
945 1 0.666667 0.833333 0.773167
903 2 0.833333 0.666667 0.791667
906 2 0.75 0.5 0.791667
951 2 0.833333 0.916667 0.791667
953 1 0.916667 0.833333 0.810167
954 2 0.75 0.75 0.791667
957 1 0.916667 0.833333 0.773167
905 1 0.916667 0.583333 0.810167
909 1 0.916667 0.583333 0.773167
820 2 0.0833333 0.416667 0.828667
1009 1 0.0833333 0.416667 0.8565
772 2 0.0833333 0.166667 0.828667
961 1 0.0833333 0.166667 0.8565
968 2 0.166667 0.0833332 0.838
1016 2 0.166667 0.333333 0.838
784 2 0.333333 0.166667 0.828667
973 1 0.333333 0.166667 0.8565
832 2 0.333333 0.416667 0.828667
1021 1 0.333333 0.416667 0.8565
980 2 0.416667 0.0833332 0.838