LAMMPS (7 Feb 2024 - Development - patch_7Feb2024_update1-197-g554f53decb)
OMP_NUM_THREADS environment is not set. Defaulting to 1 thread. (src/comm.cpp:98)
  using 1 OpenMP thread(s) per MPI task
clear
OMP_NUM_THREADS environment is not set. Defaulting to 1 thread. (src/comm.cpp:98)
  using 1 OpenMP thread(s) per MPI task
units metal
dimension 3
boundary p p p

# Atom definition
atom_style atomic
atom_modify map array

# read_data WB2-P6_3-mmc.lmpstr
read_data WB2_P6.lmp
Reading data file ...
  triclinic box = (0 0 0) to (2.982 2.5824878 13.87) with tilt (-1.491 0 0)
WARNING: Triclinic box skew is large. LAMMPS will run inefficiently. (src/domain.cpp:219)
  1 by 1 by 1 MPI processor grid
  reading atoms ...
  12 atoms
  read_data CPU = 0.000 seconds
replicate 2 2 5
Replication is creating a 2x2x5 = 20 times larger system...
  triclinic box = (0 0 0) to (5.964 5.1649755 69.35) with tilt (-2.982 0 0)
WARNING: Triclinic box skew is large. LAMMPS will run inefficiently. (src/domain.cpp:219)
  1 by 1 by 1 MPI processor grid
  240 atoms
  replicate CPU = 0.000 seconds

# Define mass and interactions (from lit.)
pair_style tersoff
pair_coeff * * WB.tersoff W B

# Neighbors and thermo settings
neighbor 2.0 bin
neigh_modify delay 1 check yes

compute eng all pe/atom
compute eatoms all reduce sum c_eng

reset_timestep 0
# The vmax keyword can be used to limit the fractional change in the
# volume of the simulation box that can occur in one iteration of the
# minimizer. If the pressure is not settling down during the
# minimization this can be because the volume is fluctuating too much.
# The specified fraction must be greater than 0.0 and should be << 1.0.
fix box_relax all box/relax aniso 0.0 vmax 0.001

# Set the thermo style to collect data every 10 time steps
thermo 10
thermo_style custom step pe vol press cella cellc c_eatoms

# Dump command to visualize in OVITO
dump 1 all atom 10 dump.WB2.lammpstrj

# Minimisation algorithms:
#   cg = Conjugate Gradient
#   sd = Steepest Descent
# Typically, steepest descent will not converge as quickly as CG, but may
# be more robust in some situations.

# Run energy minimisation algorithms. Use multiple to guarantee a stable
# phase. Minimize args:
#   etol(stop tolerance: energy)
#   ftol(stop tolerance: force)
#   maxiter(max iters of minimiser)
#   maxeval(max # of F/E calcs)

min_style cg
minimize 1.0e-4 1.0e-6 1000 10000
Switching to 'neigh_modify every 1 delay 0 check yes' setting during minimization
Neighbor list info ...
  update: every = 1 steps, delay = 0 steps, check = yes
  max neighbors/atom: 2000, page size: 100000
  master list distance cutoff = 7.240189
  ghost atom cutoff = 7.240189
  binsize = 3.6200945, bins = 3 2 20
  1 neighbor lists, perpetual/occasional/extra = 1 0 0
  (1) pair tersoff, perpetual
      attributes: full, newton on
      pair build: full/bin/atomonly
      stencil: full/bin/3d
      bin: standard
WARNING: Energy due to 3 extra global DOFs will be included in minimizer energies
 (src/min.cpp:219)
Per MPI rank memory allocation (min/avg/max) = 4.497 | 4.497 | 4.497 Mbytes
   Step         PotEng         Volume         Press          Cella          Cellc         c_eatoms   
         0   28848.544      2136.2514      41766300       5.964          69.35          28848.544    
        10   27627.688      2178.5734      39491721       5.993628       70.0435        27627.688    
        20   26459.106      2221.3856      37370006       6.0232161      70.737         26459.106    
        30   25339.649      2264.7172      35373131       6.0528008      71.4305        25339.649    
        40   24267.218      2308.5722      33485498       6.0823837      72.124         24267.218    
        50   23239.852      2352.9533      31701009       6.1119638      72.8175        23239.852    
        60   22255.669      2397.8627      30013878       6.1415404      73.511         22255.669    
        70   21312.865      2443.3029      28418652       6.1711128      74.2045        21312.865    
        80   20409.711      2489.2763      26910191       6.2006803      74.898         20409.711    
        90   19544.549      2535.7851      25483651       6.230242       75.5915        19544.549    
       100   18715.786      2582.8315      24134955       6.2597968      76.285         18715.786    
       110   17921.892      2630.4169      22859329       6.2893432      76.9785        17921.892    
       120   17161.407      2678.5436      21652639       6.3188804      77.672         17161.407    
       130   16432.882      2727.2094      20515813       6.3484027      78.3655        16432.882    
       140   15734.877      2776.4081      19442485       6.3778997      79.059         15734.877    
       150   15066.082      2826.1414      18426718       6.4073707      79.7525        15066.082    
       160   14425.286      2876.4114      17464993       6.4368157      80.446         14425.286    
       170   13811.33       2927.2205      16554289       6.4662349      81.1395        13811.33     
       180   13221.175      2978.5843      15841588       6.4956616      81.833         13221.175    
       190   12647.971      3030.5431      15231569       6.525125       82.5265        12647.971    
       200   12090.997      3083.0831      14637180       6.5545896      83.22          12090.997    
       210   11550.281      3136.1819      14054242       6.5840283      83.9135        11550.281    
       220   11025.997      3189.8158      13478542       6.6134133      84.607         11025.997    
       230   10518.466      3243.9596      12905837       6.6427171      85.3005        10518.466    
       240   10028.165      3298.5868      12332053       6.6719126      85.994         10028.165    
       250   9555.7095      3353.6707      11753731       6.7009733      86.6875        9555.7095    
       260   9101.9178      3409.1786      11159133       6.7298657      87.381         9101.9178    
       270   8668.893       3464.988       10517590       6.7584356      88.0745        8668.893     
       280   8258.6504      3520.9445      9865362        6.7865754      88.768         8258.6504    
       290   7871.701       3576.9804      9220832        6.8142441      89.4615        7871.701     
       300   7507.8752      3633.0506      8599217.1      6.8414171      90.155         7507.8752    
       310   7166.2814      3689.1274      8016691.5      6.8680879      90.8485        7166.2814    
       320   6845.2974      3745.2131      7489626.1      6.894277       91.542         6845.2974    
       330   6541.7018      3801.2294      7112200        6.9199259      92.2355        6541.7018    
       340   6248.6407      3856.616       6883744.8      6.9445284      92.929         6248.6407    
       350   5960.7584      3911.5394      6805710        6.9682376      93.6225        5960.7584    
       360   5667.4144      3966.4673      7119769.2      6.9913963      94.316         5667.4144    
       370   5334.5799      4022.3752      8764002.1      7.0143981      95.0095        5334.5799    
       380   4970.7475      4078.9599      5768315.8      7.0344486      95.703         4970.7475    
       390   4746.5542      4130.9624      5023683.2      7.0539303      96.3965        4746.5542    
       400   4532.2193      4183.0025      4797971.7      7.0734169      97.09          4532.2193    
       410   4326.2333      4235.367       4576345.2      7.0928724      97.7835        4326.2333    
       420   4128.5779      4288.2097      4358260.7      7.1124268      98.477         4128.5779    
       430   3939.1976      4341.6839      4145711.8      7.132205       99.1705        3939.1976    
       440   3757.9088      4395.9451      3938972.3      7.1523246      99.864         3757.9088    
       450   3584.5752      4451.1436      3736889.5      7.1728974      100.5575       3584.5752    
       460   3419.0166      4507.4296      3540582        7.1940342      101.251        3419.0166    
       470   3259.2181      4565.0506      3499836.3      7.2160273      101.9445       3259.2181    
       480   3090.9205      4624.9243      3753783.8      7.23987        102.638        3090.9205    
       490   2909.5146      4687.2295      3955650        7.2651836      103.3315       2909.5146    
       500   2717.7755      4751.5699      4087006.7      7.2915336      104.025        2717.7755    
       510   2518.9565      4817.5487      4151992.8      7.3185957      104.7185       2518.9565    
       520   2315.7824      4884.9327      4167861        7.3462401      105.412        2315.7824    
       530   2110.3811      4953.5185      4158944.3      7.3742909      106.1055       2110.3811    
       540   1904.063       5022.7309      4122167.5      7.4022965      106.799        1904.063     
       550   1699.099       5092.43        4040180.1      7.4301518      107.4925       1699.099     
       560   1497.7313      5162.5751      3917956        7.4578289      108.186        1497.7313    
       570   1301.9921      5233.1237      3760652.8      7.4852995      108.8795       1301.9921    
       580   1113.6881      5304.0296      3573399.1      7.5125333      109.573        1113.6881    
       590   934.67827      5375.1385      3352244.6      7.5393884      110.2665       934.67827    
       600   766.78143      5446.1631      3107654.2      7.5655928      110.96         766.78143    
       610   611.4306       5516.7856      2844910.6      7.590858       111.6535       611.4306     
       620   469.69184      5586.6332      2567100.6      7.6150111      112.347        469.69184    
       630   342.14412      5655.3158      2289439.8      7.6379356      113.0405       342.14412    
       640   228.71212      5722.5713      2016310.4      7.6594855      113.734        228.71212    
       650   129.07886      5788.0752      1751402.7      7.6794767      114.4275       129.07886    
       660   42.703356      5851.4221      1497933.7      7.6976755      115.121        42.703356    
       670  -31.164508      5912.1008      1258675.8      7.7137841      115.8145      -31.164508    
       680  -93.471969      5969.4622      1035995.3      7.7274201      116.508       -93.471969    
       690  -145.35457      6022.6794      831898.97      7.7380921      117.2015      -145.35457    
       700  -188.12929      6070.7014      648085.59      7.7451704      117.895       -188.12929    
       710  -223.28602      6112.2121      486046.12      7.7478609      118.5885      -223.28602    
       720  -252.46093      6145.6208      346966.37      7.7451975      119.282       -252.46093    
       730  -277.36541      6169.148       231903.56      7.7360926      119.9755      -277.36541    
       740  -299.63135      6181.1109      141641.63      7.7195137      120.669       -299.63135    
       750  -320.53199      6180.4989      76288.583      7.6948458      121.3625      -320.53199    
       760  -340.64317      6167.7284      34457.498      7.6623764      122.056       -340.64317    
       770  -359.68801      6145.0578      12452.09       7.6235781      122.7495      -359.68801    
       780  -376.80427      6116.0777      4417.1491      7.5808029      123.443       -376.80427    
       790  -391.10643      6084.3989      1038.2554      7.5364765      124.1365      -391.10643    
       800  -404.14282      6042.181      -23769.31       7.4880008      124.83        -404.14282    
       810  -418.53659      5980.6104     -37690.38       7.4289814      125.49784     -418.53659    
       820  -432.78016      5914.7862     -42173.685      7.3693414      126.10611     -432.78016    
       830  -447.02507      5847.5917     -43842.436      7.3097014      126.69202     -447.02507    
       840  -461.32097      5779.6735     -44565.586      7.2500614      127.26777     -461.32097    
       850  -475.65641      5711.2547     -44903.626      7.1904214      127.83703     -475.65641    
       860  -490.00132      5642.4335     -45101.351      7.1307814      128.40095     -490.00132    
       870  -504.4512       5572.9363     -47626.14       7.0711414      128.95571     -504.4512     
       880  -519.1306       5502.8064     -49377.547      7.0115014      129.49852     -519.1306     
       890  -534.05298      5432.2885     -50743.002      6.9518614      130.03352     -534.05298    
       900  -549.21319      5361.4814     -51946.27       6.8922214      130.56218     -549.21319    
       910  -564.59806      5290.4404     -53053.56       6.8325814      131.08501     -564.59806    
       920  -580.19028      5219.206      -54078.814      6.7729414      131.60228     -580.19028    
       930  -595.96941      5147.8131     -55017.57       6.7133014      132.11412     -595.96941    
       940  -611.91206      5076.294      -55858.101      6.6536614      132.62067     -611.91206    
       950  -627.9917       5004.6793     -56585.136      6.5940214      133.12206     -627.9917     
       960  -644.17842      4932.9988     -57181.07       6.5343814      133.61843     -644.17842    
       970  -660.43862      4861.2813     -57626.346      6.4747414      134.10992     -660.43862    
       980  -676.88673      4788.8671     -77659.185      6.4154206      134.57417     -676.88673    
       990  -694.24086      4714.1766     -101081.98      6.3565009      134.95988     -694.24086    
      1000  -712.95472      4638.3956     -118003.18      6.2976182      135.30371     -712.95472    
Loop time of 4.61661 on 1 procs for 1000 steps with 240 atoms

100.0% CPU use with 1 MPI tasks x 1 OpenMP threads

Minimization stats:
  Stopping criterion = max iterations
  Energy initial, next-to-last, final = 
      28848.5444108401  -711.018492091749  -712.954721679242
  Force two-norm initial, final = 102889.39 1307.1394
  Force max component initial, final = 84814.036 879.31471
  Final line search alpha, max atom move = 1.1376433e-06 0.0010003465
  Iterations, force evaluations = 1000 1000

MPI task timing breakdown:
Section |  min time  |  avg time  |  max time  |%varavg| %total
---------------------------------------------------------------
Pair    | 4.4963     | 4.4963     | 4.4963     |   0.0 | 97.39
Neigh   | 0.036595   | 0.036595   | 0.036595   |   0.0 |  0.79
Comm    | 0.014808   | 0.014808   | 0.014808   |   0.0 |  0.32
Output  | 0.030151   | 0.030151   | 0.030151   |   0.0 |  0.65
Modify  | 0          | 0          | 0          |   0.0 |  0.00
Other   |            | 0.03877    |            |       |  0.84

Nlocal:            240 ave         240 max         240 min
Histogram: 1 0 0 0 0 0 0 0 0 0
Nghost:           3092 ave        3092 max        3092 min
Histogram: 1 0 0 0 0 0 0 0 0 0
Neighs:              0 ave           0 max           0 min
Histogram: 1 0 0 0 0 0 0 0 0 0
FullNghs:        17680 ave       17680 max       17680 min
Histogram: 1 0 0 0 0 0 0 0 0 0

Total # of neighbors = 17680
Ave neighs/atom = 73.666667
Neighbor list builds = 63
Dangerous builds = 0
min_style sd
minimize 1.0e-4 1.0e-6 1000 10000
Switching to 'neigh_modify every 1 delay 0 check yes' setting during minimization
WARNING: Energy due to 3 extra global DOFs will be included in minimizer energies
 (src/min.cpp:219)
Per MPI rank memory allocation (min/avg/max) = 5.639 | 5.639 | 5.639 Mbytes
   Step         PotEng         Volume         Press          Cella          Cellc         c_eatoms   
      1000  -712.95472      4638.3956     -118003.18      6.2976182      135.30371     -712.95472    
      1010  -735.9948       4570.7651     -205324.99      6.2351356      136.02729     -735.9948     
      1020  -759.18902      4492.2198     -230811.99      6.1725256      136.42384     -759.18902    
      1030  -783.73399      4412.7492     -245969.33      6.1098998      136.7797      -783.73399    
      1040  -809.49226      4333.6794     -255783.76      6.0472334      137.1346      -809.49226    
      1050  -835.89055      4255.3124     -256766.01      5.9844111      137.50062     -835.89055    
      1060  -862.34852      4177.811      -253377.05      5.921533       137.88119     -862.34852    
      1070  -888.46392      4101.2108     -245650.37      5.8585832      138.27849     -888.46392    
      1080  -913.79567      4025.5834     -233794.76      5.795607       138.69312     -913.79567    
      1090  -937.90466      3950.9412     -218013.37      5.7326308      139.12466     -937.90466    
      1100  -960.36224      3877.249      -198457.78      5.6696546      139.57225     -960.36224    
      1110  -980.74462      3804.4707     -175258.36      5.6066784      140.03482     -980.74462    
      1120  -998.6387       3732.576      -148551.56      5.5437022      140.51132     -998.6387     
      1130  -1013.649       3661.5458     -118476.74      5.4807261      141.00067     -1013.649     
      1140  -1025.4107      3591.381      -85146.724      5.4177499      141.50175     -1025.4107    
      1150  -1033.6357      3522.1368     -48571.232      5.3547737      142.01331     -1033.6357    
      1160  -1038.6135      3454.185      -7950.7798      5.2917975      142.53385     -1038.6135    
      1170  -1046.916       3459.5159      21660.995      5.2965348      142.4554      -1046.916     
      1180  -1048.0704      3464.8246      19905.011      5.301178       142.42089     -1048.0704    
      1190  -1049.169       3469.0429      18641.517      5.3048512      142.39552     -1049.169     
      1200  -1050.2371      3473.2144      16844.552      5.3084532      142.37257     -1050.2371    
      1210  -1051.3302      3477.6613      14578.294      5.3122728      142.34929     -1051.3302    
      1220  -1052.5022      3482.5404      13064.6        5.3165178      142.32084     -1052.5022    
      1230  -1055.506       3500.1683     -20131.061      5.3296703      142.33595     -1055.506     
Loop time of 1.33631 on 1 procs for 230 steps with 240 atoms

100.0% CPU use with 1 MPI tasks x 1 OpenMP threads

Minimization stats:
  Stopping criterion = energy tolerance
  Energy initial, next-to-last, final = 
     -712.954721679242  -1055.42764058796  -1055.50600414229
  Force two-norm initial, final = 1540.9466 135.07016
  Force max component initial, final = 926.73985 97.863753
  Final line search alpha, max atom move = 1.3268316e-05 0.0012984872
  Iterations, force evaluations = 230 286

MPI task timing breakdown:
Section |  min time  |  avg time  |  max time  |%varavg| %total
---------------------------------------------------------------
Pair    | 1.3102     | 1.3102     | 1.3102     |   0.0 | 98.05
Neigh   | 0.0037722  | 0.0037722  | 0.0037722  |   0.0 |  0.28
Comm    | 0.0042659  | 0.0042659  | 0.0042659  |   0.0 |  0.32
Output  | 0.0065075  | 0.0065075  | 0.0065075  |   0.0 |  0.49
Modify  | 0          | 0          | 0          |   0.0 |  0.00
Other   |            | 0.01153    |            |       |  0.86

Nlocal:            240 ave         240 max         240 min
Histogram: 1 0 0 0 0 0 0 0 0 0
Nghost:           4316 ave        4316 max        4316 min
Histogram: 1 0 0 0 0 0 0 0 0 0
Neighs:              0 ave           0 max           0 min
Histogram: 1 0 0 0 0 0 0 0 0 0
FullNghs:        27280 ave       27280 max       27280 min
Histogram: 1 0 0 0 0 0 0 0 0 0

Total # of neighbors = 27280
Ave neighs/atom = 113.66667
Neighbor list builds = 7
Dangerous builds = 0

# min_style cg
# minimize 1.0e-4 1.0e-6 1000 10000
# min_style cg
# minimize 1.0e-4 1.0e-6 1000 10000

unfix box_relax

# Divide sim box by periodic multiple
variable        a equal cella/2
variable        b equal cellb/2
variable        c equal cellc/5

variable        natoms equal "count(all)"
variable        teng equal "c_eatoms"
variable        ecoh equal "v_teng/v_natoms"

print "LA: ${a}"
LA: 2.66483516495656
print "LB: ${b}"
LB: 2.66387207802818
print "LC: ${c}"
LC: 28.4671892229766
print "COHENERGY: ${ecoh}"
COHENERGY: -4.39794168392621

# ELASTIC CONSTANT

variable up equal 1.0e-6
variable atomjiggle equal 1.0e-5
variable cfac equal 1.0e-4
variable cunits string GPa
variable etol equal 0.0
variable ftol equal 1.0e-10
variable maxiter equal 100
variable maxeval equal 1000
variable dmax equal 1.0e-2

include init.mod
# NOTE: This script can be modified for different atomic structures,
# units, etc. See in.elastic for more info.

# Define the finite deformation size. Try several values of this
# variable to verify that results do not depend on it.
variable up equal 1.0e-6

# Define the amount of random jiggle for atoms
# This prevents atoms from staying on saddle points
variable atomjiggle equal 1.0e-5

# Uncomment one of these blocks, depending on what units
# you are using in LAMMPS and for output

# metal units, elastic constants in eV/A^3
#units		metal
#variable cfac equal 6.2414e-7
#variable cunits string eV/A^3

# metal units, elastic constants in GPa
# units	metal already defined earlier
variable cfac equal 1.0e-4
variable cunits string GPa

# real units, elastic constants in GPa
#units		real
#variable cfac equal 1.01325e-4
#variable cunits string GPa

# Define minimization parameters
variable etol equal 0.0
# variable ftol equal 1.0e-10
variable maxiter equal 100
variable maxeval equal 1000
variable dmax equal 1.0e-2

# boundary p p p already defined earlier

# read_data WB2_P6.lmp defined earlier
include potential.mod
# NOTE: This script can be modified for different pair styles
# See in.elastic for more info.

# Choose potential
pair_style tersoff
pair_coeff * * WB.tersoff W B

# Setup neighbor style
neighbor 1.0 nsq
neigh_modify once no every 1 delay 0 check yes

# Setup minimization style
min_style	cg
min_modify dmax ${dmax} line quadratic
min_modify dmax 0.01 line quadratic

# Setup output
thermo 1
thermo_style custom step temp pe press pxx pyy pzz pxy pxz pyz lx ly lz vol
thermo_modify norm no

dump 2 all atom 10 dump.WB2-l.lammpstrj

# Compute initial state
fix 3 all box/relax aniso 1.0
minimize ${etol} ${ftol} ${maxiter} ${maxeval}
minimize 0 ${ftol} ${maxiter} ${maxeval}
minimize 0 1e-10 ${maxiter} ${maxeval}
minimize 0 1e-10 100 ${maxeval}
minimize 0 1e-10 100 1000
Neighbor list info ...
  update: every = 1 steps, delay = 0 steps, check = yes
  max neighbors/atom: 2000, page size: 100000
  master list distance cutoff = 6.240189
  ghost atom cutoff = 6.240189
  1 neighbor lists, perpetual/occasional/extra = 1 0 0
  (1) pair tersoff, perpetual
      attributes: full, newton on
      pair build: full/nsq
      stencil: none
      bin: none
WARNING: Energy due to 3 extra global DOFs will be included in minimizer energies
 (src/min.cpp:219)
Per MPI rank memory allocation (min/avg/max) = 5.588 | 5.588 | 5.588 Mbytes
   Step          Temp          PotEng         Press           Pxx            Pyy            Pzz            Pxy            Pxz            Pyz             Lx             Ly             Lz           Volume    
      1230   0             -1055.506      -20131.061     -6551.79       -6716.7379     -47124.656     -3829.4481      6965.7363      14978.421      5.3296703      4.6139618      142.33595      3500.1683    
      1231   0             -1055.5235     -15850.953     -4887.4648     -5020.7453     -37644.65      -3866.9728      7338.9483      15497.018      5.3295962      4.613896       142.32171      3499.7198    
      1232   0             -1055.5406     -11566.747     -3217.3698     -3320.4881     -28162.382     -3904.5072      7711.1448      16012.165      5.329527       4.6138345      142.30748      3499.2776    
      1233   0             -1055.5588     -7244.2966     -1524.6237     -1609.5772     -18598.689     -3933.166       8044.4198      16505.282      5.3294661      4.6137801      142.29325      3498.8464    
      1234   0             -1055.5814     -2897.5212      190.0731       114.7536      -8997.3902     -3956.3837      8346.3825      16978.549      5.3294224      4.6137401      142.27901      3498.4374    
      1235   0             -1055.6224      1504.4315      1964.2581      1873.0724      675.96403     -3979.3933      8549.8046      17426.267      5.3294336      4.613746       142.26478      3498.0992    
      1236   0             -1055.8058     -355.6585       1535.7263      1455.3013     -4058.0031     -3984.8031      8400.0341      17057.399      5.3299666      4.6141859      142.26941      3498.8965    
      1237   0             -1055.8932      3726.1502      3205.128       3113.5326      4859.7901     -4010.0257      8588.4754      17437.431      5.3301689      4.6143518      142.25517      3498.8051    
      1238   0             -1055.9692     -1052.5142      1417.2032      1323.8348     -5898.5806     -3991.384       8255.2507      16839.746      5.330533       4.6146579      142.26941      3499.6263    
      1239   0             -1056.0324      2995.8627      3027.4475      2942.9033      3017.2372     -4017.2521      8521.1579      17250.173      5.3306749      4.614773       142.25517      3499.4567    
      1240   0             -1056.1477     -1807.7934      1237.5582      1130.8237     -7791.7621     -3998.7682      8101.8281      16610.374      5.3312079      4.6152214      142.26877      3500.4811    
      1241   0             -1056.1954      2275.6255      2839.3937      2744.0474      1243.4355     -4024.4299      8381.858       17039.989      5.3313039      4.6152979      142.25454      3500.2519    
      1242   0             -1056.3165     -273.35198      1900.6912      1789.1537     -4509.9009     -4016.8405      8119.7451      16651.017      5.3318369      4.6157437      142.26042      3501.0848    
      1243   0             -1056.3926      3580.8434      3414.458       3316.3115      4011.7606     -4045.8346      8378.0005      17039.216      5.3320652      4.6159298      142.24619      3501.0256    
      1244   0             -1056.4805     -1337.6494      1531.4422      1398.8947     -6943.2851     -4012.6335      7911.9021      16379.84       5.3325365      4.616326       142.26042      3501.9859    
      1245   0             -1056.5325      2622.2794      3072.6689      2966.3506      1827.8187     -4049.3893      8227.9206      16821.781      5.3326687      4.6164311      142.24619      3501.8021    
      1246   0             -1056.6413     -567.15772      1855.4395      1717.8124     -5274.7251     -4025.0907      7870.7001      16337.959      5.3332017      4.6168764      142.25423      3502.688     
      1247   0             -1056.7054      3288.69        3354.2339      3242.8086      3269.0275     -4061.6756      8169.0259      16757.642      5.3333958      4.6170322      142.24         3502.5832    
      1248   0             -1056.8037     -1446.4877      1529.4805      1376.8078     -7245.7513     -4023.7921      7682.3193      16092.135      5.3339288      4.617478       142.25329      3503.5989    
      1249   0             -1056.852       2510.911       3063.7684      2940.0142      1528.9503     -4060.8307      8000.5422      16538.663      5.3340547      4.6175768      142.23906      3503.406     
      1250   0             -1056.9581     -308.62946      1975.9317      1826.5855     -4728.4056     -4040.537       7678.8186      16102.181      5.3345877      4.6180195      142.24578      3504.2574    
      1251   0             -1057.0271      3481.0498      3444.6017      3322.7699      3675.7778     -4077.1336      7967.5138      16510.002      5.3348157      4.6182021      142.23154      3504.1951    
      1252   0             -1057.118      -1519.9878      1506.6         1344.9292     -7411.4926     -4037.8453      7463.3514      15818.735      5.335336       4.6186363      142.24578      3505.2171    
      1253   0             -1057.1644      2434.9844      3038.7029      2905.8513      1360.3989     -4074.2469      7781.9266      16265.577      5.3354597      4.6187328      142.23154      3505.0209    
      1254   0             -1057.2684     -182.86706      2019.4491      1868.6049     -4436.6551     -4056.855       7479.2493      15861.261      5.3359927      4.6191739      142.23755      3505.8538    
      1255   0             -1057.3396      3564.1811      3472.1651      3345.594       3874.7841     -4092.71        7762.6252      16255.975      5.3362398      4.619372       142.22332      3505.8156    
      1256   0             -1057.4234     -1305.4677      1552.88        1421.8542     -6891.1373     -4047.4774      7293.584       15674.183      5.3367369      4.6197864      142.23755      3506.8077    
      1257   0             -1057.4718      2526.9331      3065.7432      2929.3271      1585.7288     -4089.8196      7580.768       16018.153      5.3368729      4.6198947      142.22332      3506.6283    
      1258   0             -1057.572      -250.64491      1945.5285      1832.9152     -4530.3784     -4060.9173      7291.6999      15691.483      5.3374059      4.6203355      142.2303       3507.4853    
      1259   0             -1057.6401      3400.6272      3394.7161      3266.6211      3540.5445     -4103.2872      7546.1959      15999.146      5.3376402      4.6205267      142.21606      3507.4334    
      1260   0             -1057.7291     -1355.0783      1466.6871      1397.0334     -6928.9555     -4047.9892      7108.7276      15480.811      5.3381714      4.6209691      142.2303       3508.4695    
      1261   0             -1057.7758      2418.5297      2983.5854      2874.2631      1397.7407     -4091.2727      7388.3424      15840.131      5.3382994      4.6210748      142.21606      3508.2826    
      1262   0             -1057.876      -111.64485      1942.3149      1880.2432     -4157.4926     -4060.9048      7123.123       15517.843      5.3388323      4.6215192      142.22239      3509.1264    
      1263   0             -1057.9477      3479.3474      3383.4281      3285.585       3769.029      -4101.051       7372.7071      15842.355      5.3390857      4.6217316      142.20815      3509.1029    
      1264   0             -1058.0289     -1198.289       1478.7259      1448.4196     -6522.0124     -4045.0264      6944.184       15311.998      5.3395821      4.6221489      142.22239      3510.0974    
      1265   0             -1058.077       2559.2007      2992.3948      2920.2408      1764.9665     -4087.0934      7221.4052      15667.264      5.3397185      4.6222645      142.20815      3509.9235    
      1266   0             -1058.1741     -434.12529      1768.0836      1741.5958     -4812.0552     -4049.3847      6920.4405      15300.689      5.3402515      4.6227148      142.21613      3510.8129    
      1267   0             -1058.235       3226.2306      3242.2795      3175.1871      3261.2251     -4089.5158      7181.945       15637.217      5.340454       4.6228874      142.2019       3510.7257    
      1268   0             -1058.3234     -1337.4259      1376.8327      1379.681      -6768.7915     -4029.5527      6766.8051      15098.939      5.3409869      4.6233394      142.21564      3511.7585    
      1269   0             -1058.3685      2406.6678      2895.9626      2846.8127      1477.2281     -4074.4736      7036.1711      15470.59       5.3411097      4.6234456      142.2014       3511.5684    
      1270   0             -1058.466      -239.445        1803.402       1802.1735     -4323.9105     -4033.8341      6777.2135      15117.17       5.3416426      4.6238993      142.20829      3512.4334    
      1271   0             -1058.5313      3336.9897      3257.0961      3203.539       3550.3339     -4077.3386      7014.1206      15464.306      5.34187        4.6240959      142.19405      3512.3807    
      1272   0             -1058.6129     -1242.8046      1370.0509      1395.083      -6493.5477     -4003.8904      6640.0035      14900.947      5.3423781      4.6245286      142.20829      3513.3951    
      1273   0             -1058.6586      2442.2965      2875.4536      2845.1184      1606.3175     -4055.8185      6876.6504      15273.615      5.3425058      4.6246409      142.19405      3513.2127    
      1274   0             -1058.754      -333.90396      1723.3387      1742.7575     -4467.8081     -4002.8757      6638.6453      14897.024      5.3430388      4.6250975      142.20161      3514.0969    
      1275   0             -1058.8157      3234.158       3181.1702      3146.0956      3375.2082     -4051.4711      6858.9874      15245.806      5.3432502      4.6252825      142.18738      3514.0247    
      1276   0             -1058.8991     -1326.0708      1295.3473      1341.098      -6614.6578     -3970.8864      6501.9223      14672.163      5.3437727      4.62573        142.20161      3515.0602    
      1277   0             -1058.9428      2357.4672      2807.2249      2790.7142      1474.4625     -4023.2093      6739.4348      15055.841      5.3438921      4.6258365      142.18738      3514.8679    
      1278   0             -1059.0378     -279.93571      1709.3787      1743.9028     -4293.0886     -3970.9738      6511.3291      14683.277      5.3444251      4.6262954      142.19447      3515.7424    
      1279   0             -1059.1         3271.1573      3165.9755      3140.5682      3506.9283     -4018.5506      6730.069       15036.437      5.3446425      4.6264873      142.18023      3515.6793    
      1280   0             -1059.178      -1252.7568      1292.6946      1350.2791     -6401.2442     -3938.6911      6378.4995      14464.937      5.3451429      4.6269172      142.19447      3516.6872    
      1281   0             -1059.2219      2424.8059      2804.5622      2798.162       1671.6934     -3990.3461      6614.8009      14845.296      5.345266       4.627028       142.18023      3516.5004    
      1282   0             -1059.3142     -474.06248      1599.674       1647.7878     -4669.6493     -3933.4725      6369.9886      14446.532      5.345799       4.6274885      142.18828      3517.4002    
      1283   0             -1059.3702      3113.6427      3074.3703      3059.7807      3206.777      -3982.1255      6593.9493      14806.717      5.3459881      4.627657       142.17405      3517.3007    
      1284   0             -1059.4532     -1446.9089      1182.1891      1254.0805     -6776.9962     -3898.8772      6243.7586      14221.783      5.3465211      4.6281165      142.18828      3518.3527    
      1285   0             -1059.4937      2241.4464      2703.2801      2706.6405      1314.4185     -3952.1558      6475.7375      14611.376      5.3466293      4.6282151      142.17405      3518.1466    
      1286   0             -1059.5866     -235.64566      1669.3519      1722.1547     -4098.4436     -3899.5035      6268.5533      14251.342      5.3471614      4.6286765      142.18057      3519.0089    
      1287   0             -1059.6478      3295.5521      3125.1718      3111.9056      3649.579      -3947.5684      6478.2449      14607.688      5.347383       4.6288743      142.16634      3518.9529    
      1288   0             -1059.7187     -1173.8433      1267.6501      1340.8345     -6130.0145     -3864.2441      6150.9377      14032.657      5.347858       4.629284       142.18057      3519.9293    
      1289   0             -1059.7619      2481.1448      2777.1432      2782.0444      1884.2467     -3918.0196      6374.5803      14418.481      5.3479845      4.6293991      142.16634      3519.7477    
      1290   0             -1059.8497     -694.13802      1453.9213      1519.5545     -5055.8899     -3852.1752      6127.4374      13977.56       5.3485163      4.6298605      142.17548      3520.6749    
      1291   0             -1059.8989      2913.2492      2943.7367      2942.2042      2853.8067     -3904.1288      6345.3496      14352.903      5.3486778      4.6300064      142.16125      3520.5398    
      1292   0             -1059.9808     -1344.5754      1172.3642      1251.0205     -6457.1111     -3821.072       6028.7526      13790.71       5.3492108      4.6304678      142.17441      3521.5676    
      1293   0             -1060.0205      2328.5601      2691.0567      2701.1265      1593.4971     -3875.5406      6255.0659      14181.69       5.3493216      4.6305694      142.16018      3521.3652    
      1294   0             -1060.1083     -517.17209      1503.7788      1567.4283     -4622.7233     -3814.737       6029.2953      13777.351      5.3498523      4.6310308      142.16811      3522.2619    
      1295   0             -1060.1601      3061.6522      2983.128       2979.8749      3221.9538     -3865.599       6243.9557      14146.427      5.3500324      4.6311932      142.15387      3522.1513    
      1296   0             -1060.2361     -1456.6997      1102.5881      1184.0327     -6656.7198     -3778.8932      5912.3534      13558.345      5.3505487      4.6316399      142.16811      3523.1837    
      1297   0             -1060.274       2221.3267      2625.0047      2637.5968      1401.3786     -3833.5799      6139.5614      13950.871      5.3506531      4.631736       142.15387      3522.9728    
      1298   0             -1060.3613     -404.19018      1528.0566      1589.8386     -4330.4658     -3776.1905      5928.4014      13571.449      5.3511832      4.6321974      142.16099      3523.8492    
      1299   0             -1060.4146      3152.7148      2999.6576      2994.7334      3463.7533     -3826.2744      6140.5218      13935.893      5.351377       4.6323718      142.14675      3523.7566    
      1300   0             -1060.4833     -1320.0392      1137.2169      1216.0178     -6313.3522     -3740.8134      5817.3324      13358.946      5.3518596      4.6327892      142.16099      3524.7448    
      1301   0             -1060.5221      2346.0696      2655.6905      2665.7015      1716.8168     -3795.5217      6040.7004      13748.578      5.3519725      4.6328928      142.14675      3524.545     
      1302   0             -1060.606      -692.35106      1387.0429      1453.8073     -4917.9034     -3730.8794      5807.081       13323.853      5.3525032      4.6333542      142.15539      3525.4598    
      1303   0             -1060.6522      2911.9719      2879.8064      2878.8584      2977.251      -3783.355       6022.2665      13699.152      5.3526615      4.6334976      142.14116      3525.3203    
      1304   0             -1060.7288     -1565.4967      1013.4083      1096.2289     -6806.1275     -3695.5644      5698.8419      13114.16       5.3531943      4.633959       142.15515      3526.3694    
      1305   0             -1060.7639      2121.3971      2542.0918      2555.6014      1266.498      -3751.3424      5923.8814      13508.968      5.3532897      4.6340473      142.14092      3526.1463    
      1306   0             -1060.8488     -367.69617      1500.367       1560.3304     -4163.7859     -3695.2911      5726.3601      13145.827      5.3538196      4.6345087      142.14752      3527.0102    
      1307   0             -1060.9008      3180.583       2970.6808      2963.8341      3607.234      -3745.7104      5934.9247      13508.688      5.3540168      4.6346861      142.13328      3526.922     
      1308   0             -1060.9632     -1260.1177      1118.875       1195.4598     -6094.6879     -3661.0496      5618.9419      12939.486      5.3544765      4.6350834      142.14752      3527.8804    
      1309   0             -1061.0011      2396.9467      2636.2798      2643.7466      1910.8136     -3715.4317      5841.6146      13328.151      5.3545922      4.6351895      142.13328      3527.6841    
      1310   0             -1061.0808     -920.91675      1249.0841      1319.0127     -5330.8471     -3646.6546      5590.4012      12872.136      5.3551233      4.6356509      142.14297      3528.6256    
      1311   0             -1061.1215      2708.9336      2755.601       2756.825       2614.3747     -3699.9651      5810.099       13254.753      5.3552581      4.6357737      142.12874      3528.4546    
      1312   0             -1061.1968     -1432.9371      1025.1146      1104.3999     -6428.3259     -3618.1872      5506.5402      12706.838      5.3557905      4.6362351      142.14149      3529.4734    
      1313   0             -1061.2315      2242.1659      2551.6866      2561.4023      1613.4088     -3673.2768      5731.838       13100.174      5.3558902      4.6363272      142.12726      3529.2557    
      1314   0             -1061.3113     -727.14295      1308.3734      1373.6397     -4863.442      -3610.1255      5502.9137      12684.038      5.3564208      4.6367886      142.13565      3530.165     
      1315   0             -1061.354       2876.9595      2805.0838      2802.3949      3023.3999     -3662.5081      5719.7456      13060.403      5.3565724      4.636926       142.12142      3530.016     
      1316   0             -1061.4244     -1643.7856      916.18126      997.67082     -6845.2089     -3575.1322      5393.3986      12474.606      5.3570942      4.6373777      142.13565      3531.0574    
      1317   0             -1061.4567      2043.5167      2448.8221      2461.307       1220.4208     -3630.739       5620.2666      12869.376      5.3571829      4.6374601      142.12142      3530.825     
      1318   0             -1061.5372     -434.21227      1409.4535      1467.5584     -4179.6488     -3575.4362      5422.9879      12509.843      5.3577129      4.6379215      142.12798      3531.6886    
      1319   0             -1061.5847      3121.3424      2886.5002      2877.9263      3599.6006     -3626.0576      5634.157       12874.64       5.3578982      4.6380883      142.11374      3531.584     
      1320   0             -1061.6421     -1299.3905      1038.9494      1112.4915     -6049.6123     -3542.417       5320.5589      12312.689      5.3583476      4.6384766      142.12798      3532.5297    
      1321   0             -1061.6772      2355.8318      2559.1572      2564.2494      1944.0887     -3596.9858      5543.2157      12700.414      5.3584581      4.638578       142.11374      3532.326     
      1322   0             -1061.7523     -1072.7586      1122.8031      1191.3927     -5532.4717     -3526.5131      5286.7374      12235.662      5.3589897      4.6390394      142.12385      3533.2792    
      1323   0             -1061.7885      2569.1057      2637.9368      2638.3677      2431.0127     -3580.6288      5507.8092      12620.382      5.3591091      4.6391485      142.10962      3533.0871    
      1324   0             -1061.8604     -1449.6931      954.97927      1030.1369     -6334.1955     -3500.9973      5213.5057      12089.999      5.3596416      4.6396099      142.12193      3534.0958    
      1325   0             -1061.8925      2223.6426      2484.2741      2490.4901      1696.1635     -3556.1365      5439.1447      12482.405      5.3597367      4.6396978      142.1077       3533.8715    
      1326   0             -1061.9675     -914.45009      1167.6819      1232.3681     -5143.4002     -3490.687       5200.143       12049.729      5.360268       4.6401592      142.11673      3534.7978    
      1327   0             -1062.0048      2709.6258      2676.5738      2673.0622      2779.2415     -3543.8528      5420.4939      12431.248      5.3603987      4.6402782      142.10249      3534.6206    
      1328   0             -1062.0736     -1733.4045      815.07021      894.7832      -6910.0669     -3458.0438      5097.8983      11853.295      5.3609317      4.6407394      142.1164       3535.6693    
      1329   0             -1062.103       1956.5536      2352.8891      2363.1139      1153.6579     -3513.6682      5326.4778      12250.19       5.3610122      4.6408145      142.10216      3535.4255    
      1330   0             -1062.1795     -479.20324      1328.1168      1383.8562     -4149.5827     -3459.5831      5131.6278      11895.559      5.3615426      4.6412759      142.10857      3536.2862    
Loop time of 0.475784 on 1 procs for 100 steps with 240 atoms

100.0% CPU use with 1 MPI tasks x 1 OpenMP threads

Minimization stats:
  Stopping criterion = max iterations
  Energy initial, next-to-last, final = 
     -1055.50600414229  -1062.10294611449  -1062.17944061301
  Force two-norm initial, final = 138.2041 63.086588
  Force max component initial, final = 102.95228 9.1757264
  Final line search alpha, max atom move = 1.9175603e-05 0.00017595009
  Iterations, force evaluations = 100 100

MPI task timing breakdown:
Section |  min time  |  avg time  |  max time  |%varavg| %total
---------------------------------------------------------------
Pair    | 0.46175    | 0.46175    | 0.46175    |   0.0 | 97.05
Neigh   | 0          | 0          | 0          |   0.0 |  0.00
Comm    | 0.0013162  | 0.0013162  | 0.0013162  |   0.0 |  0.28
Output  | 0.0085287  | 0.0085287  | 0.0085287  |   0.0 |  1.79
Modify  | 0          | 0          | 0          |   0.0 |  0.00
Other   |            | 0.004185   |            |       |  0.88

Nlocal:            240 ave         240 max         240 min
Histogram: 1 0 0 0 0 0 0 0 0 0
Nghost:           3706 ave        3706 max        3706 min
Histogram: 1 0 0 0 0 0 0 0 0 0
Neighs:              0 ave           0 max           0 min
Histogram: 1 0 0 0 0 0 0 0 0 0
FullNghs:        14320 ave       14320 max       14320 min
Histogram: 1 0 0 0 0 0 0 0 0 0

Total # of neighbors = 14320
Ave neighs/atom = 59.666667
Neighbor list builds = 0
Dangerous builds = 0

variable tmp equal pxx
variable pxx0 equal ${tmp}
variable pxx0 equal 1328.11684381497
variable tmp equal pyy
variable pyy0 equal ${tmp}
variable pyy0 equal 1383.85617808052
variable tmp equal pzz
variable pzz0 equal ${tmp}
variable pzz0 equal -4149.58274944018
variable tmp equal pyz
variable pyz0 equal ${tmp}
variable pyz0 equal 11895.5589659893
variable tmp equal pxz
variable pxz0 equal ${tmp}
variable pxz0 equal 5131.62782305218
variable tmp equal pxy
variable pxy0 equal ${tmp}
variable pxy0 equal -3459.58313920388

variable tmp equal lx
variable lx0 equal ${tmp}
variable lx0 equal 5.36154258104852
variable tmp equal ly
variable ly0 equal ${tmp}
variable ly0 equal 4.64127589316208
variable tmp equal lz
variable lz0 equal ${tmp}
variable lz0 equal 142.108568010266

# These formulas define the derivatives w.r.t. strain components
# Constants uses $, variables use v_
variable d1 equal -(v_pxx1-${pxx0})/(v_delta/v_len0)*${cfac}
variable d1 equal -(v_pxx1-1328.11684381497)/(v_delta/v_len0)*${cfac}
variable d1 equal -(v_pxx1-1328.11684381497)/(v_delta/v_len0)*0.0001
variable d2 equal -(v_pyy1-${pyy0})/(v_delta/v_len0)*${cfac}
variable d2 equal -(v_pyy1-1383.85617808052)/(v_delta/v_len0)*${cfac}
variable d2 equal -(v_pyy1-1383.85617808052)/(v_delta/v_len0)*0.0001
variable d3 equal -(v_pzz1-${pzz0})/(v_delta/v_len0)*${cfac}
variable d3 equal -(v_pzz1--4149.58274944018)/(v_delta/v_len0)*${cfac}
variable d3 equal -(v_pzz1--4149.58274944018)/(v_delta/v_len0)*0.0001
variable d4 equal -(v_pyz1-${pyz0})/(v_delta/v_len0)*${cfac}
variable d4 equal -(v_pyz1-11895.5589659893)/(v_delta/v_len0)*${cfac}
variable d4 equal -(v_pyz1-11895.5589659893)/(v_delta/v_len0)*0.0001
variable d5 equal -(v_pxz1-${pxz0})/(v_delta/v_len0)*${cfac}
variable d5 equal -(v_pxz1-5131.62782305218)/(v_delta/v_len0)*${cfac}
variable d5 equal -(v_pxz1-5131.62782305218)/(v_delta/v_len0)*0.0001
variable d6 equal -(v_pxy1-${pxy0})/(v_delta/v_len0)*${cfac}
variable d6 equal -(v_pxy1--3459.58313920388)/(v_delta/v_len0)*${cfac}
variable d6 equal -(v_pxy1--3459.58313920388)/(v_delta/v_len0)*0.0001

displace_atoms all random ${atomjiggle} ${atomjiggle} ${atomjiggle} 87287 units box
displace_atoms all random 1e-05 ${atomjiggle} ${atomjiggle} 87287 units box
displace_atoms all random 1e-05 1e-05 ${atomjiggle} 87287 units box
displace_atoms all random 1e-05 1e-05 1e-05 87287 units box
Displacing atoms ...

# Write restart
unfix 3
write_restart restart.equil
System init for write_restart ...

variable dir equal 1
include displace.mod
# NOTE: This script should not need to be
# modified. See in.elastic for more info.
#
# Find which reference length to use

if "${dir} == 1" then    "variable len0 equal ${lx0}"
variable len0 equal ${lx0}
variable len0 equal 5.36154258104852
if "${dir} == 2" then    "variable len0 equal ${ly0}"
if "${dir} == 3" then    "variable len0 equal ${lz0}"
if "${dir} == 4" then    "variable len0 equal ${lz0}"
if "${dir} == 5" then    "variable len0 equal ${lz0}"
if "${dir} == 6" then    "variable len0 equal ${ly0}"

# Reset box and simulation parameters

clear
OMP_NUM_THREADS environment is not set. Defaulting to 1 thread. (src/comm.cpp:98)
  using 1 OpenMP thread(s) per MPI task
box tilt large

The 'box' command has been removed and will be ignored

read_restart restart.equil
Reading restart file ...
  restart file = 7 Feb 2024, LAMMPS = 7 Feb 2024
  restoring atom style atomic from restart
  triclinic box = (0.30122871 0.26184981 -36.379284) to (5.6627713 4.9031257 105.72928) with tilt (-2.6796419 0 0)
WARNING: Triclinic box skew is large. LAMMPS will run inefficiently. (src/domain.cpp:219)
  1 by 1 by 1 MPI processor grid
  pair style tersoff stores no restart info
  240 atoms
  read_restart CPU = 0.000 seconds
include potential.mod
# NOTE: This script can be modified for different pair styles
# See in.elastic for more info.

# Choose potential
pair_style tersoff
pair_coeff * * WB.tersoff W B

# Setup neighbor style
neighbor 1.0 nsq
neigh_modify once no every 1 delay 0 check yes

# Setup minimization style
min_style	cg
min_modify dmax ${dmax} line quadratic
min_modify dmax 0.01 line quadratic

# Setup output
thermo 1
thermo_style custom step temp pe press pxx pyy pzz pxy pxz pyz lx ly lz vol
thermo_modify norm no

dump 2 all atom 10 dump.WB2-l.lammpstrj

# Negative deformation

variable delta equal -${up}*${len0}
variable delta equal -1e-06*${len0}
variable delta equal -1e-06*5.36154258104852
variable deltaxy equal -${up}*xy
variable deltaxy equal -1e-06*xy
variable deltaxz equal -${up}*xz
variable deltaxz equal -1e-06*xz
variable deltayz equal -${up}*yz
variable deltayz equal -1e-06*yz
if "${dir} == 1" then    "change_box all x delta 0 ${delta} xy delta ${deltaxy} xz delta ${deltaxz} remap units box"
change_box all x delta 0 ${delta} xy delta ${deltaxy} xz delta ${deltaxz} remap units box
change_box all x delta 0 -5.36154258104852e-06 xy delta ${deltaxy} xz delta ${deltaxz} remap units box
change_box all x delta 0 -5.36154258104852e-06 xy delta 2.67964188630065e-06 xz delta ${deltaxz} remap units box
change_box all x delta 0 -5.36154258104852e-06 xy delta 2.67964188630065e-06 xz delta -0 remap units box
Changing box ...
WARNING: Triclinic box skew is large. LAMMPS will run inefficiently. (src/domain.cpp:219)
  triclinic box = (0.30122871 0.26184981 -36.379284) to (5.6627659 4.9031257 105.72928) with tilt (-2.6796419 0 0)
WARNING: Triclinic box skew is large. LAMMPS will run inefficiently. (src/domain.cpp:219)
  triclinic box = (0.30122871 0.26184981 -36.379284) to (5.6627659 4.9031257 105.72928) with tilt (-2.6796392 0 0)
WARNING: Triclinic box skew is large. LAMMPS will run inefficiently. (src/domain.cpp:219)
  triclinic box = (0.30122871 0.26184981 -36.379284) to (5.6627659 4.9031257 105.72928) with tilt (-2.6796392 0 0)
if "${dir} == 2" then    "change_box all y delta 0 ${delta} yz delta ${deltayz} remap units box"
if "${dir} == 3" then    "change_box all z delta 0 ${delta} remap units box"
if "${dir} == 4" then    "change_box all yz delta ${delta} remap units box"
if "${dir} == 5" then    "change_box all xz delta ${delta} remap units box"
if "${dir} == 6" then    "change_box all xy delta ${delta} remap units box"

# Relax atoms positions

minimize ${etol} ${ftol} ${maxiter} ${maxeval}
minimize 0 ${ftol} ${maxiter} ${maxeval}
minimize 0 1e-10 ${maxiter} ${maxeval}
minimize 0 1e-10 100 ${maxeval}
minimize 0 1e-10 100 1000
Neighbor list info ...
  update: every = 1 steps, delay = 0 steps, check = yes
  max neighbors/atom: 2000, page size: 100000
  master list distance cutoff = 6.240189
  ghost atom cutoff = 6.240189
  1 neighbor lists, perpetual/occasional/extra = 1 0 0
  (1) pair tersoff, perpetual
      attributes: full, newton on
      pair build: full/nsq
      stencil: none
      bin: none
Per MPI rank memory allocation (min/avg/max) = 4.327 | 4.327 | 4.327 Mbytes
   Step          Temp          PotEng         Press           Pxx            Pyy            Pzz            Pxy            Pxz            Pyz             Lx             Ly             Lz           Volume    
      1330   0             -1062.1797     -478.49907      1332.9419      1388.2178     -4156.6569     -3462.7967      5128.8682      11898.47       5.3615372      4.6412759      142.10857      3536.2827    
      1331   0             -1066.7616     -2875.6622      8970.5023      8808.4805     -26405.969     -2677.5299      3395.7994      8068.3671      5.3615372      4.6412759      142.10857      3536.2827    
      1332   0             -1071.4792     -22482.793      1786.0392      1809.5554     -71043.974     -2097.7362      2141.4209      4618.5062      5.3615372      4.6412759      142.10857      3536.2827    
      1333   0             -1076.1178     -34322.936     -3089.9473     -2945.6535     -96933.207     -1654.8022      1629.0226      2380.2718      5.3615372      4.6412759      142.10857      3536.2827    
      1334   0             -1080.7313     -41842.283     -6706.7515     -6410.1941     -112409.9      -1321.9165      1386.2996      895.52968      5.3615372      4.6412759      142.10857      3536.2827    
      1335   0             -1085.337      -46784.726     -9536.7369     -9119.1267     -121698.31     -1058.6747      1324.5662      37.993465      5.3615372      4.6412759      142.10857      3536.2827    
      1336   0             -1089.9397     -50007.131     -11820.461     -11322.643     -126878.29     -852.88873      1332.578      -399.68069      5.3615372      4.6412759      142.10857      3536.2827    
      1337   0             -1094.5387     -52144.475     -13748.816     -13189.745     -129494.86     -704.03304      1306.8816     -580.39252      5.3615372      4.6412759      142.10857      3536.2827    
      1338   0             -1099.1312     -53561.772     -15428.253     -14817.276     -130439.79     -603.34134      1224.3309     -611.4934       5.3615372      4.6412759      142.10857      3536.2827    
      1339   0             -1103.7135     -54476.001     -16920.6       -16260.345     -130247.06     -530.67647      1119.6807     -553.91354      5.3615372      4.6412759      142.10857      3536.2827    
      1340   0             -1108.2811     -55010.217     -18256.02      -17551.191     -129223.44     -470.14459      1030.7468     -450.67472      5.3615372      4.6412759      142.10857      3536.2827    
      1341   0             -1112.829      -55286.145     -19465.271     -18720.264     -127672.9      -418.33626      955.04643     -340.2634       5.3615372      4.6412759      142.10857      3536.2827    
      1342   0             -1117.3523     -55365.879     -20564.267     -19778.333     -125755.04     -374.86145      889.91942     -241.47311      5.3615372      4.6412759      142.10857      3536.2827    
      1343   0             -1121.846      -55272.329     -21554.515     -20727.774     -123534.7      -337.91434      834.0356      -154.81995      5.3615372      4.6412759      142.10857      3536.2827    
      1344   0             -1126.305      -55021.196     -22435.401     -21568.786     -121059.4      -306.11698      786.74569     -79.492443      5.3615372      4.6412759      142.10857      3536.2827    
      1345   0             -1130.7241     -54624.474     -23205.419     -22300.201     -118367.8      -278.63978      746.62076     -14.566993      5.3615372      4.6412759      142.10857      3536.2827    
      1346   0             -1135.0981     -54090.678     -23862.063     -22919.757     -115490.21     -254.8428       712.51066      41.10744       5.3615372      4.6412759      142.10857      3536.2827    
      1347   0             -1139.4217     -53412.863     -24400.995     -23418.03      -112419.56     -234.87296      680.80219      102.58366      5.3615372      4.6412759      142.10857      3536.2827    
      1348   0             -1143.6896     -52607.575     -24819.84      -23797.196     -109205.69     -217.65359      650.67626      157.29848      5.3615372      4.6412759      142.10857      3536.2827    
      1349   0             -1147.8964     -51680.273     -25114.737     -24054.52      -105871.56     -202.76672      625.5683       202.33022      5.3615372      4.6412759      142.10857      3536.2827    
      1350   0             -1152.0369     -50635.562     -25282.452     -24186.205     -102438.03     -189.37077      603.64707      240.64449      5.3615372      4.6412759      142.10857      3536.2827    
      1351   0             -1156.1059     -49474.662     -25318.544     -24187.814     -98917.628     -177.33758      584.85878      273.13437      5.3615372      4.6412759      142.10857      3536.2827    
      1352   0             -1160.0981     -48194.831     -25216.969     -24054.395     -95313.13      -167.49951      565.11607      302.83776      5.3615372      4.6412759      142.10857      3536.2827    
      1353   0             -1164.0084     -46799.002     -24974.017     -23782.144     -91640.845     -159.36463      544.06174      329.78563      5.3615372      4.6412759      142.10857      3536.2827    
      1354   0             -1167.8317     -45291.149     -24586.713     -23367.397     -87919.338     -152.20306      524.24751      352.88656      5.3615372      4.6412759      142.10857      3536.2827    
      1355   0             -1171.5633     -43672.479     -24051.056     -22806.269     -84160.11      -146.01781      506.46162      372.91397      5.3615372      4.6412759      142.10857      3536.2827    
      1356   0             -1175.1983     -41944.514     -23363.328     -22095.205     -80375.009     -140.74662      490.95984      390.85263      5.3615372      4.6412759      142.10857      3536.2827    
      1357   0             -1178.7321     -40107.903     -22520.095     -21230.364     -76573.251     -136.2739       477.85712      406.58076      5.3615372      4.6412759      142.10857      3536.2827    
      1358   0             -1182.1604     -38164.595     -21518.406     -20208.76      -72766.619     -132.52692      467.2182       420.41474      5.3615372      4.6412759      142.10857      3536.2827    
      1359   0             -1185.4791     -36116.186     -20355.457     -19027.731     -68965.371     -129.28382      459.67794      432.99625      5.3615372      4.6412759      142.10857      3536.2827    
      1360   0             -1188.6843     -33963.082     -19029.55      -17683.591     -65176.104     -126.65265      454.34236      440.42396      5.3615372      4.6412759      142.10857      3536.2827    
      1361   0             -1191.7721     -31697.458     -17538.608     -16169.135     -61384.632     -125.4045       448.9442       434.37003      5.3615372      4.6412759      142.10857      3536.2827    
      1362   0             -1194.7395     -29344.234     -15884.481     -14493.091     -57655.13      -125.91075      446.34721      436.32118      5.3615372      4.6412759      142.10857      3536.2827    
      1363   0             -1197.5833     -26903.352     -14065.567     -12654.238     -53990.252     -127.55195      446.02659      442.95367      5.3615372      4.6412759      142.10857      3536.2827    
      1364   0             -1200.3007     -24376.98      -12081.558     -10652.456     -50396.927     -130.02778      448.32902      452.88646      5.3615372      4.6412759      142.10857      3536.2827    
      1365   0             -1202.8896     -21767.21      -9933.1491     -8487.783      -46880.699     -133.10959      453.5355       464.2191       5.3615372      4.6412759      142.10857      3536.2827    
      1366   0             -1205.3478     -19077.978     -7621.9592     -6161.6721     -43450.303     -136.72246      461.92231      476.18271      5.3615372      4.6412759      142.10857      3536.2827    
      1367   0             -1207.6738     -16314.827     -5150.4746     -3676.9766     -40117.029     -140.81403      473.72491      489.41566      5.3615372      4.6412759      142.10857      3536.2827    
      1368   0             -1209.8664     -13482.812     -2522.0341     -1036.8294     -36889.572     -145.44545      489.65005      503.86965      5.3615372      4.6412759      142.10857      3536.2827    
      1369   0             -1211.9249     -10585.727      259.63778      1755.2734     -33772.091     -150.96792      511.58565      518.12899      5.3615372      4.6412759      142.10857      3536.2827    
      1370   0             -1213.8488     -7621.51        3193.0828      4695.42       -30753.033     -159.68428      549.24976      526.82052      5.3615372      4.6412759      142.10857      3536.2827    
      1371   0             -1215.6383     -4615.3743      6265.2438      7773.9187     -27885.285     -168.96701      590.68986      537.43292      5.3615372      4.6412759      142.10857      3536.2827    
      1372   0             -1217.2941     -1567.017       9471.114       10985.987     -25158.152     -179.13565      637.41144      549.80749      5.3615372      4.6412759      142.10857      3536.2827    
      1373   0             -1218.8175      1515.355       12801.942      14323.781     -22579.658     -190.05454      691.51696      564.37222      5.3615372      4.6412759      142.10857      3536.2827    
      1374   0             -1220.2104      4622.8936      16247.8        17778.041     -20157.161     -201.88627      754.61925      581.54946      5.3615372      4.6412759      142.10857      3536.2827    
      1375   0             -1221.4757      7744.4488      19796.381      21337.844     -17900.878     -214.50955      829.34453      602.13894      5.3615372      4.6412759      142.10857      3536.2827    
      1376   0             -1222.6176      10884.781      23437.381      24995.762     -15778.799     -225.56568      926.01109      623.06242      5.3615372      4.6412759      142.10857      3536.2827    
      1377   0             -1223.6421      14015.846      27148.32       28732.208     -13832.99      -235.87744      1045.8519      645.57251      5.3615372      4.6412759      142.10857      3536.2827    
      1378   0             -1224.5585      17104.224      30898.573      32523.942     -12109.843     -243.80422      1178.9789      675.11635      5.3615372      4.6412759      142.10857      3536.2827    
      1379   0             -1225.3818      20136.34       34654.445      36346.258     -10591.683     -251.63583      1345.0025      715.79365      5.3615372      4.6412759      142.10857      3536.2827    
      1380   0             -1226.0873      22839.405      38084.076      39870.976     -9436.8369     -249.46873      1539.4516      784.19157      5.3615372      4.6412759      142.10857      3536.2827    
      1381   0             -1226.5905      24679.877      40456.557      42340.606     -8757.5305     -248.35659      1724.9687      847.3603       5.3615372      4.6412759      142.10857      3536.2827    
      1382   0             -1226.9958      25916.008      42128.279      44122.237     -8502.4918     -227.00161      1909.5134      955.20126      5.3615372      4.6412759      142.10857      3536.2827    
      1383   0             -1227.3521      26897.145      43371.576      45466.154     -8146.2967     -231.12645      2098.1168      1017.7169      5.3615372      4.6412759      142.10857      3536.2827    
      1384   0             -1227.6854      27440.756      44222.626      46439.621     -8339.9801     -189.39935      2273.0228      1161.9137      5.3615372      4.6412759      142.10857      3536.2827    
      1385   0             -1228.0099      28004.474      44896.76       47207.312     -8090.6509     -198.5584       2470.976       1207.3283      5.3615372      4.6412759      142.10857      3536.2827    
      1386   0             -1228.3341      28215.931      45301.915      47735.625     -8389.7478     -153.75326      2652.7329      1372.5032      5.3615372      4.6412759      142.10857      3536.2827    
      1387   0             -1228.6634      28532.545      45625.749      48150.903     -8179.017      -161.81002      2801.4731      1482.6605      5.3615372      4.6412759      142.10857      3536.2827    
      1388   0             -1229.0015      28640.514      45778.104      48409.942     -8266.505      -140.90471      2888.7904      1670.7793      5.3615372      4.6412759      142.10857      3536.2827    
      1389   0             -1229.3507      28727.735      45838.749      48569.266     -8224.809      -136.21612      2985.2539      1829.0836      5.3615372      4.6412759      142.10857      3536.2827    
      1390   0             -1229.7131      28711.465      45790.757      48624.537     -8280.8985     -122.61324      3094.3185      2015.3626      5.3615372      4.6412759      142.10857      3536.2827    
      1391   0             -1230.09        28658.677      45663.609      48601.651     -8289.2294     -112.57262      3208.7413      2202.5739      5.3615372      4.6412759      142.10857      3536.2827    
      1392   0             -1230.4821      28552.688      45457.407      48505.267     -8304.6105     -101.08017      3326.1211      2406.0561      5.3615372      4.6412759      142.10857      3536.2827    
      1393   0             -1230.8903      28408.854      45181.51       48345.279     -8300.2275     -90.508409      3445.4445      2624.2316      5.3615372      4.6412759      142.10857      3536.2827    
      1394   0             -1231.3155      28231.053      44839.419      48128.406     -8274.6681     -80.538968      3565.6552      2862.2067      5.3615372      4.6412759      142.10857      3536.2827    
      1395   0             -1231.7582      28019.544      44433.643      47858.012     -8233.0224     -71.735922      3686.1271      3118.7605      5.3615372      4.6412759      142.10857      3536.2827    
      1396   0             -1232.2194      27777.109      43966.376      47537.344     -8172.3936     -64.611625      3807.0504      3394.4381      5.3615372      4.6412759      142.10857      3536.2827    
      1397   0             -1232.6999      27506.165      43438.797      47168.794     -8089.0958     -59.549376      3927.6953      3690.0673      5.3615372      4.6412759      142.10857      3536.2827    
      1398   0             -1233.2007      27207.362      42850.636      46753.611     -7982.1618     -57.047287      4047.6751      4006.5551      5.3615372      4.6412759      142.10857      3536.2827    
      1399   0             -1233.7162      26884.665      42209.031      46298.12      -7853.1574     -57.645152      4165.1458      4340.3599      5.3615372      4.6412759      142.10857      3536.2827    
      1400   0             -1234.2456      26539.386      41515.788      45804.916     -7702.5448     -61.793819      4279.5596      4690.6258      5.3615372      4.6412759      142.10857      3536.2827    
      1401   0             -1234.7889      26171.905      40771.243      45275.399     -7530.9272     -69.928988      4390.512       5056.7626      5.3615372      4.6412759      142.10857      3536.2827    
      1402   0             -1235.3389      25786.883      39985.467      44717.652     -7342.4704     -82.315193      4496.1547      5432.8907      5.3615372      4.6412759      142.10857      3536.2827    
      1403   0             -1235.8846      25392.085      39175.439      44144.427     -7143.6126     -98.859394      4594.2549      5809.9852      5.3615372      4.6412759      142.10857      3536.2827    
      1404   0             -1236.4258      24988.561      38343.587      43558.056     -6935.9601     -119.49032      4684.8332      6186.3569      5.3615372      4.6412759      142.10857      3536.2827    
      1405   0             -1236.9623      24576.811      37491.627      42960.143     -6721.3371     -144.09669      4767.8403      6560.4575      5.3615372      4.6412759      142.10857      3536.2827    
      1406   0             -1237.4941      24157          36620.715      42351.737     -6501.4529     -172.54076      4843.162       6930.8856      5.3615372      4.6412759      142.10857      3536.2827    
      1407   0             -1238.0215      23741.459      35731.548      41740.914     -6248.0853     -204.54896      4910.3896      7281.4895      5.3615372      4.6412759      142.10857      3536.2827    
      1408   0             -1238.5445      23318.896      34821.301      41124.386     -5988.9988     -241.53837      4970.5422      7623.0459      5.3615372      4.6412759      142.10857      3536.2827    
      1409   0             -1239.0635      22883.224      33889.459      40499.052     -5738.8397     -283.31213      5023.3876      7960.8263      5.3615372      4.6412759      142.10857      3536.2827    
      1410   0             -1239.5786      22435.657      32937.014      39864.512     -5494.5535     -329.32373      5068.4974      8293.2133      5.3615372      4.6412759      142.10857      3536.2827    
      1411   0             -1240.0897      21956.539      31965.088      39205.566     -5301.0371     -379.06124      5105.1946      8592.5591      5.3615372      4.6412759      142.10857      3536.2827    
      1412   0             -1240.5988      21371.733      30976.484      38461.352     -5322.6361     -430.59031      5139.2088      8749.1332      5.3615372      4.6412759      142.10857      3536.2827    
      1413   0             -1241.109       20825.497      29983.037      37719.694     -5226.2417     -473.96411      5196.414       8892.5932      5.3615372      4.6412759      142.10857      3536.2827    
      1414   0             -1241.6204      20296.266      28978.949      36979.308     -5069.4598     -506.95903      5248.1349      9031.247       5.3615372      4.6412759      142.10857      3536.2827    
      1415   0             -1242.1329      19774.495      27955.525      36228.339     -4860.3792     -538.14491      5290.4493      9173.4863      5.3615372      4.6412759      142.10857      3536.2827    
      1416   0             -1242.6466      19244.114      26909.991      35459.629     -4637.2792     -569.11521      5319.6051      9311.537       5.3615372      4.6412759      142.10857      3536.2827    
      1417   0             -1243.1615      18699.981      25839.506      34665.863     -4405.4252     -598.76135      5334.0636      9435.195       5.3615372      4.6412759      142.10857      3536.2827    
      1418   0             -1243.6775      18142.145      24749.916      33846.241     -4169.723      -628.34095      5335.4154      9544.0798      5.3615372      4.6412759      142.10857      3536.2827    
      1419   0             -1244.1941      17594.986      23643.929      33015.917     -3874.8869     -658.46023      5324.0368      9670.1639      5.3615372      4.6412759      142.10857      3536.2827    
      1420   0             -1244.7102      17016.756      22503.855      32149.578     -3603.1651     -690.886        5293.7622      9785.779       5.3615372      4.6412759      142.10857      3536.2827    
      1421   0             -1245.2252      16412.678      21333.158      31244.059     -3339.1819     -725.12247      5251.0348      9883.9706      5.3615372      4.6412759      142.10857      3536.2827    
      1422   0             -1245.7385      15784.756      20128.99       30296.408     -3071.1291     -761.56786      5197.6574      9966.3021      5.3615372      4.6412759      142.10857      3536.2827    
      1423   0             -1246.2489      15127.832      18887.072      29299.92      -2803.4947     -800.95156      5134.622       10029.795      5.3615372      4.6412759      142.10857      3536.2827    
      1424   0             -1246.7556      14387.93       17605.475      28209.491     -2651.1757     -841.59585      5066.1744      10005.592      5.3615372      4.6412759      142.10857      3536.2827    
      1425   0             -1247.2582      13608.374      16289.706      27038.975     -2503.5589     -881.76835      4970.943       9918.4396      5.3615372      4.6412759      142.10857      3536.2827    
      1426   0             -1247.3352      13483.718      16084.514      26850.436     -2483.7964     -888.59206      4955.2364      9900.6354      5.3615372      4.6412759      142.10857      3536.2827    
      1427   0             -1247.3979      13381.198      15916.633      26695.213     -2468.2505     -894.27059      4942.2892      9886.236       5.3615372      4.6412759      142.10857      3536.2827    
      1428   0             -1247.4528      14181.161      15768.355      27289.32      -514.19156     -902.83966      4925.1183      11065.281      5.3615372      4.6412759      142.10857      3536.2827    
      1429   0             -1247.5049      26829.634      15575.796      37675.325      27237.781     -968.60175      4777.3722      28240.543      5.3615372      4.6412759      142.10857      3536.2827    
      1430   0             -1247.9321      10554.745      13879.252      24694.469     -6909.4851     -1142.788       3823.0732      10169.766      5.3615372      4.6412759      142.10857      3536.2827    
Loop time of 0.369595 on 1 procs for 100 steps with 240 atoms

100.0% CPU use with 1 MPI tasks x 1 OpenMP threads

Minimization stats:
  Stopping criterion = max iterations
  Energy initial, next-to-last, final = 
     -1062.17966261497   -1247.5048715096  -1247.93214885336
  Force two-norm initial, final = 62.271206 8.7705475
  Force max component initial, final = 7.2699932 1.8839745
  Final line search alpha, max atom move = 0.00094844101 0.0017868386
  Iterations, force evaluations = 100 104

MPI task timing breakdown:
Section |  min time  |  avg time  |  max time  |%varavg| %total
---------------------------------------------------------------
Pair    | 0.35564    | 0.35564    | 0.35564    |   0.0 | 96.22
Neigh   | 0.0022153  | 0.0022153  | 0.0022153  |   0.0 |  0.60
Comm    | 0.0019193  | 0.0019193  | 0.0019193  |   0.0 |  0.52
Output  | 0.0084756  | 0.0084756  | 0.0084756  |   0.0 |  2.29
Modify  | 0          | 0          | 0          |   0.0 |  0.00
Other   |            | 0.001349   |            |       |  0.36

Nlocal:            240 ave         240 max         240 min
Histogram: 1 0 0 0 0 0 0 0 0 0
Nghost:           3706 ave        3706 max        3706 min
Histogram: 1 0 0 0 0 0 0 0 0 0
Neighs:              0 ave           0 max           0 min
Histogram: 1 0 0 0 0 0 0 0 0 0
FullNghs:        14610 ave       14610 max       14610 min
Histogram: 1 0 0 0 0 0 0 0 0 0

Total # of neighbors = 14610
Ave neighs/atom = 60.875
Neighbor list builds = 1
Dangerous builds = 0

# Obtain new stress tensor

variable tmp equal pxx
variable pxx1 equal ${tmp}
variable pxx1 equal 13879.2522659852
variable tmp equal pyy
variable pyy1 equal ${tmp}
variable pyy1 equal 24694.4690094847
variable tmp equal pzz
variable pzz1 equal ${tmp}
variable pzz1 equal -6909.48508654466
variable tmp equal pxy
variable pxy1 equal ${tmp}
variable pxy1 equal -1142.78798760858
variable tmp equal pxz
variable pxz1 equal ${tmp}
variable pxz1 equal 3823.07322370105
variable tmp equal pyz
variable pyz1 equal ${tmp}
variable pyz1 equal 10169.7659613737

# Compute elastic constant from pressure tensor

variable C1neg equal ${d1}
variable C1neg equal 1255113.54221702
variable C2neg equal ${d2}
variable C2neg equal 2331061.28314042
variable C3neg equal ${d3}
variable C3neg equal -275990.233710448
variable C4neg equal ${d4}
variable C4neg equal -172579.30046156
variable C5neg equal ${d5}
variable C5neg equal -130855.459935113
variable C6neg equal ${d6}
variable C6neg equal 231679.51515953

# Reset box and simulation parameters

clear
OMP_NUM_THREADS environment is not set. Defaulting to 1 thread. (src/comm.cpp:98)
  using 1 OpenMP thread(s) per MPI task
box tilt large

The 'box' command has been removed and will be ignored

read_restart restart.equil
Reading restart file ...
  restart file = 7 Feb 2024, LAMMPS = 7 Feb 2024
  restoring atom style atomic from restart
  triclinic box = (0.30122871 0.26184981 -36.379284) to (5.6627713 4.9031257 105.72928) with tilt (-2.6796419 0 0)
WARNING: Triclinic box skew is large. LAMMPS will run inefficiently. (src/domain.cpp:219)
  1 by 1 by 1 MPI processor grid
  pair style tersoff stores no restart info
  240 atoms
  read_restart CPU = 0.000 seconds
include potential.mod
# NOTE: This script can be modified for different pair styles
# See in.elastic for more info.

# Choose potential
pair_style tersoff
pair_coeff * * WB.tersoff W B

# Setup neighbor style
neighbor 1.0 nsq
neigh_modify once no every 1 delay 0 check yes

# Setup minimization style
min_style	cg
min_modify dmax ${dmax} line quadratic
min_modify dmax 0.01 line quadratic

# Setup output
thermo 1
thermo_style custom step temp pe press pxx pyy pzz pxy pxz pyz lx ly lz vol
thermo_modify norm no

dump 2 all atom 10 dump.WB2-l.lammpstrj

# Positive deformation

variable delta equal ${up}*${len0}
variable delta equal 1e-06*${len0}
variable delta equal 1e-06*5.36154258104852
variable deltaxy equal ${up}*xy
variable deltaxy equal 1e-06*xy
variable deltaxz equal ${up}*xz
variable deltaxz equal 1e-06*xz
variable deltayz equal ${up}*yz
variable deltayz equal 1e-06*yz
if "${dir} == 1" then    "change_box all x delta 0 ${delta} xy delta ${deltaxy} xz delta ${deltaxz} remap units box"
change_box all x delta 0 ${delta} xy delta ${deltaxy} xz delta ${deltaxz} remap units box
change_box all x delta 0 5.36154258104852e-06 xy delta ${deltaxy} xz delta ${deltaxz} remap units box
change_box all x delta 0 5.36154258104852e-06 xy delta -2.67964188630065e-06 xz delta ${deltaxz} remap units box
change_box all x delta 0 5.36154258104852e-06 xy delta -2.67964188630065e-06 xz delta 0 remap units box
Changing box ...
WARNING: Triclinic box skew is large. LAMMPS will run inefficiently. (src/domain.cpp:219)
  triclinic box = (0.30122871 0.26184981 -36.379284) to (5.6627767 4.9031257 105.72928) with tilt (-2.6796419 0 0)
WARNING: Triclinic box skew is large. LAMMPS will run inefficiently. (src/domain.cpp:219)
  triclinic box = (0.30122871 0.26184981 -36.379284) to (5.6627767 4.9031257 105.72928) with tilt (-2.6796446 0 0)
WARNING: Triclinic box skew is large. LAMMPS will run inefficiently. (src/domain.cpp:219)
  triclinic box = (0.30122871 0.26184981 -36.379284) to (5.6627767 4.9031257 105.72928) with tilt (-2.6796446 0 0)
if "${dir} == 2" then    "change_box all y delta 0 ${delta} yz delta ${deltayz} remap units box"
if "${dir} == 3" then    "change_box all z delta 0 ${delta} remap units box"
if "${dir} == 4" then    "change_box all yz delta ${delta} remap units box"
if "${dir} == 5" then    "change_box all xz delta ${delta} remap units box"
if "${dir} == 6" then    "change_box all xy delta ${delta} remap units box"

# Relax atoms positions

minimize ${etol} ${ftol} ${maxiter} ${maxeval}
minimize 0 ${ftol} ${maxiter} ${maxeval}
minimize 0 1e-10 ${maxiter} ${maxeval}
minimize 0 1e-10 100 ${maxeval}
minimize 0 1e-10 100 1000
Neighbor list info ...
  update: every = 1 steps, delay = 0 steps, check = yes
  max neighbors/atom: 2000, page size: 100000
  master list distance cutoff = 6.240189
  ghost atom cutoff = 6.240189
  1 neighbor lists, perpetual/occasional/extra = 1 0 0
  (1) pair tersoff, perpetual
      attributes: full, newton on
      pair build: full/nsq
      stencil: none
      bin: none
Per MPI rank memory allocation (min/avg/max) = 4.327 | 4.327 | 4.327 Mbytes
   Step          Temp          PotEng         Press           Pxx            Pyy            Pzz            Pxy            Pxz            Pyz             Lx             Ly             Lz           Volume    
      1330   0             -1062.1797     -496.05267      1315.6059      1381.1096     -4184.8736     -3462.5629      5127.9824      11896.947      5.3615479      4.6412759      142.10857      3536.2897    
[...]
      1368   0             -1209.8664     -13484.434     -2525.024      -1038.8025     -36889.475     -145.82243      489.4372       503.77248      5.3615426      4.6412759      142.10857      3536.2862    
      1369   0             -1211.9249     -10587.407      256.62195      1753.2664     -33772.11      -151.32753      511.3219       518.05532      5.3615426      4.6412759      142.10857      3536.2862    
      1370   0             -1213.8488     -7623.1951      3190.06        4693.3904     -30753.036     -160.03029      548.96211      526.75455      5.3615426      4.6412759      142.10857      3536.2862    
      1371   0             -1215.6383     -4617.039       6262.2268      7771.8675     -27885.211     -169.30603      590.41668      537.3533       5.3615426      4.6412759      142.10857      3536.2862    
      1372   0             -1217.2941     -1568.6947      9468.094       10983.904     -25158.082     -179.46543      637.1419       549.71955      5.3615426      4.6412759      142.10857      3536.2862    
      1373   0             -1218.8175      1513.6658      12798.921      14321.664     -22579.588     -190.37409      691.24671      564.27815      5.3615426      4.6412759      142.10857      3536.2862    
      1374   0             -1220.2104      4621.1919      16244.778      17775.89      -20157.093     -202.19397      754.3451       581.45095      5.3615426      4.6412759      142.10857      3536.2862    
      1375   0             -1221.4757      7742.7365      19793.36       21335.659     -17900.81      -214.80492      829.06708      602.03543      5.3615426      4.6412759      142.10857      3536.2862    
      1376   0             -1222.6176      10882.85       23434.268      24993.518     -15779.236     -225.90378      925.49933      622.80912      5.3615426      4.6412759      142.10857      3536.2862    
      1377   0             -1223.6422      14014.118      27145.257      28730.01      -13832.914     -236.17108      1045.437       645.52941      5.3615426      4.6412759      142.10857      3536.2862    
      1378   0             -1224.5586      17102.555      30895.556      32521.714     -12109.606     -244.1262       1178.6787      674.94         5.3615426      4.6412759      142.10857      3536.2862    
      1379   0             -1225.3818      20134.358      34651.337      36343.939     -10592.202     -251.8276       1344.4732      715.83677      5.3615426      4.6412759      142.10857      3536.2862    
      1380   0             -1226.0874      22838.714      38081.638      39869.094     -9434.5892     -249.88395      1539.4217      783.68317      5.3615426      4.6412759      142.10857      3536.2862    
      1381   0             -1226.5906      24676.416      40453.241      42338.25      -8762.2433     -248.19856      1723.8708      848.12406      5.3615426      4.6412759      142.10857      3536.2862    
      1382   0             -1226.9958      25918.456      42127.122      44121.17      -8492.9244     -227.90523      1910.2844      953.53305      5.3615426      4.6412759      142.10857      3536.2862    
      1383   0             -1227.3522      26890.391      43367.059      45463.359     -8159.2457     -230.26063      2096.139       1020.6995      5.3615426      4.6412759      142.10857      3536.2862    
      1384   0             -1227.6855      27443.081      44222.248      46437.738     -8330.7416     -191.00663      2274.6199      1155.8071      5.3615426      4.6412759      142.10857      3536.2862    
      1385   0             -1228.01        28001.026      44893.357      47205.354     -8095.6327     -197.65197      2469.8704      1212.4035      5.3615426      4.6412759      142.10857      3536.2862    
      1386   0             -1228.3342      28216.865      45300.59       47733.932     -8383.9274     -154.74336      2652.2594      1368.6765      5.3615426      4.6412759      142.10857      3536.2862    
      1387   0             -1228.6635      28529.805      45622.737      48148.927     -8182.249      -161.44068      2801.3091      1485.179       5.3615426      4.6412759      142.10857      3536.2862    
      1388   0             -1229.0015      28640.196      45775.965      48408.43      -8263.805      -141.28546      2888.2072      1670.1282      5.3615426      4.6412759      142.10857      3536.2862    
      1389   0             -1229.3508      28725.702      45836.082      48567.344     -8226.3199     -136.19815      2984.8552      1829.4549      5.3615426      4.6412759      142.10857      3536.2862    
      1390   0             -1229.7132      28710.31       45788.398      48622.811     -8280.2778     -122.75795      3093.8363      2015.2581      5.3615426      4.6412759      142.10857      3536.2862    
      1391   0             -1230.09        28657.228      45661.173      48599.853     -8289.3429     -112.64659      3208.2536      2202.6153      5.3615426      4.6412759      142.10857      3536.2862    
      1392   0             -1230.4822      28551.342      45455.025      48503.485     -8304.4827     -101.17215      3325.616       2406.0452      5.3615426      4.6412759      142.10857      3536.2862    
      1393   0             -1230.8904      28407.497      45179.138      48343.494     -8300.1419     -90.589583      3444.924       2624.2418      5.3615426      4.6412759      142.10857      3536.2862    
      1394   0             -1231.3155      28229.666      44837.066      48126.6       -8274.6664     -80.617355      3565.1195      2862.1737      5.3615426      4.6412759      142.10857      3536.2862    
      1395   0             -1231.7582      28018.126      44431.293      47856.198     -8233.1128     -71.824913      3685.6427      3118.76        5.3615426      4.6412759      142.10857      3536.2862    
      1396   0             -1232.2194      27775.725      43964.052      47535.54      -8172.4167     -64.701685      3806.5669      3394.4561      5.3615426      4.6412759      142.10857      3536.2862    
      1397   0             -1232.6999      27504.796      43436.493      47166.997     -8089.1025     -59.639689      3927.2023      3690.0922      5.3615426      4.6412759      142.10857      3536.2862    
      1398   0             -1233.2007      27205.999      42848.351      46751.819     -7982.1712     -57.136792      4047.171       4006.5855      5.3615426      4.6412759      142.10857      3536.2862    
      1399   0             -1233.7162      26883.313      42206.773      46296.34      -7853.1746     -57.733283      4164.629       4340.3908      5.3615426      4.6412759      142.10857      3536.2862    
      1400   0             -1234.2456      26538.045      41513.558      45803.148     -7702.5707     -61.880093      4279.0307      4690.6575      5.3615426      4.6412759      142.10857      3536.2862    
      1401   0             -1234.7888      26170.575      40769.041      45273.646     -7530.9622     -70.013079      4389.9718      5056.7955      5.3615426      4.6412759      142.10857      3536.2862    
      1402   0             -1235.3388      25785.559      39983.283      44715.906     -7342.5117     -82.397105      4495.6058      5432.9306      5.3615426      4.6412759      142.10857      3536.2862    
      1403   0             -1235.8845      25390.768      39173.274      44142.69      -7143.6608     -98.939215      4593.6983      5810.0321      5.3615426      4.6412759      142.10857      3536.2862    
      1404   0             -1236.4257      24987.251      38341.441      43556.328     -6936.0158     -119.56821      4684.2699      6186.4105      5.3615426      4.6412759      142.10857      3536.2862    
      1405   0             -1236.9622      24575.508      37489.501      42958.425     -6721.4008     -144.17286      4767.2712      6560.5178      5.3615426      4.6412759      142.10857      3536.2862    
      1406   0             -1237.494       24155.705      36618.608      42350.031     -6501.5252     -172.61545      4842.5883      6930.9523      5.3615426      4.6412759      142.10857      3536.2862    
      1407   0             -1238.0214      23740.137      35729.462      41739.199     -6248.2503     -204.62274      4909.8129      7281.6041      5.3615426      4.6412759      142.10857      3536.2862    
      1408   0             -1238.5444      23317.595      34819.245      41122.683     -5989.1433     -241.60689      4969.9599      7623.1546      5.3615426      4.6412759      142.10857      3536.2862    
      1409   0             -1239.0633      22881.939      33887.431      40497.361     -5738.9766     -283.37788      5022.8022      7960.9347      5.3615426      4.6412759      142.10857      3536.2862    
      1410   0             -1239.5785      22434.385      32935.012      39862.835     -5494.6924     -329.38716      5067.9097      8293.3214      5.3615426      4.6412759      142.10857      3536.2862    
      1411   0             -1240.0895      21955.328      31963.112      39203.942     -5301.0691     -379.12331      5104.6066      8592.7329      5.3615426      4.6412759      142.10857      3536.2862    
      1412   0             -1240.5987      21370.513      30974.527      38459.741     -5322.7286     -430.65515      5138.6068      8749.3122      5.3615426      4.6412759      142.10857      3536.2862    
      1413   0             -1241.1089      20824.274      29981.1        37718.092     -5226.369      -474.03678      5195.8123      8892.7752      5.3615426      4.6412759      142.10857      3536.2862    
      1414   0             -1241.6202      20294.996      28977.036      36977.696     -5069.7447     -507.03419      5247.5355      9031.3698      5.3615426      4.6412759      142.10857      3536.2862    
      1415   0             -1242.1327      19773.251      27953.648      36226.751     -4860.6461     -538.2293       5289.8521      9173.5845      5.3615426      4.6412759      142.10857      3536.2862    
      1416   0             -1242.6464      19242.896      26908.147      35458.069     -4637.5291     -569.20615      5319.0083      9311.6508      5.3615426      4.6412759      142.10857      3536.2862    
      1417   0             -1243.1613      18698.769      25837.688      34664.327     -4405.7098     -598.85512      5333.478       9435.3056      5.3615426      4.6412759      142.10857      3536.2862    
      1418   0             -1243.6773      18140.946      24748.125      33844.736     -4170.0223     -628.43786      5334.8421      9544.2013      5.3615426      4.6412759      142.10857      3536.2862    
      1419   0             -1244.1939      17593.848      23642.193      33014.441     -3875.0899     -658.54565      5323.4129      9670.2406      5.3615426      4.6412759      142.10857      3536.2862    
      1420   0             -1244.71        17015.616      22502.148      32148.127     -3603.426      -690.96674      5293.1372      9785.8533      5.3615426      4.6412759      142.10857      3536.2862    
      1421   0             -1245.225       16411.553      21331.48       31242.641     -3339.4629     -725.19909      5250.4153      9884.0549      5.3615426      4.6412759      142.10857      3536.2862    
      1422   0             -1245.7382      15783.65       20127.348      30295.026     -3071.4244     -761.64035      5197.0435      9966.3942      5.3615426      4.6412759      142.10857      3536.2862    
      1423   0             -1246.2487      15126.745      18885.467      29298.575     -2803.8079     -801.01899      5134.0136      10029.89       5.3615426      4.6412759      142.10857      3536.2862    
      1424   0             -1246.7553      14386.848      17603.907      28208.178     -2651.5401     -841.65428      5065.5771      10005.672      5.3615426      4.6412759      142.10857      3536.2862    
      1425   0             -1247.258       13607.332      16288.184      27037.71      -2503.8982     -881.81789      4970.3456      9918.5348      5.3615426      4.6412759      142.10857      3536.2862    
      1426   0             -1247.335       13482.617      16082.862      26849.063     -2484.0753     -888.64505      4954.6281      9900.6997      5.3615426      4.6412759      142.10857      3536.2862    
      1427   0             -1247.3977      13380.114      15914.925      26693.815     -2468.3974     -894.32577      4941.6782      9886.2352      5.3615426      4.6412759      142.10857      3536.2862    
      1428   0             -1247.4527      14165.944      15766.612      27276.293     -545.07369     -902.84196      4924.5946      11046.385      5.3615426      4.6412759      142.10857      3536.2862    
      1429   0             -1247.5048      26739.103      15574.545      37599.557      27043.208     -968.14136      4778.1459      28118.906      5.3615426      4.6412759      142.10857      3536.2862    
      1430   0             -1247.932       10550.042      13877.692      24690.835     -6918.3997     -1142.8053      3822.3844      10174.018      5.3615426      4.6412759      142.10857      3536.2862    
Loop time of 0.37375 on 1 procs for 100 steps with 240 atoms

98.2% CPU use with 1 MPI tasks x 1 OpenMP threads

Minimization stats:
  Stopping criterion = max iterations
  Energy initial, next-to-last, final = 
     -1062.17965790188  -1247.50480471715  -1247.93198195514
  Force two-norm initial, final = 62.272725 8.7712496
  Force max component initial, final = 7.2701846 1.8830252
  Final line search alpha, max atom move = 0.00096017713 0.0018080378
  Iterations, force evaluations = 100 104

MPI task timing breakdown:
Section |  min time  |  avg time  |  max time  |%varavg| %total
---------------------------------------------------------------
Pair    | 0.36225    | 0.36225    | 0.36225    |   0.0 | 96.92
Neigh   | 0.0017369  | 0.0017369  | 0.0017369  |   0.0 |  0.46
Comm    | 0.0014717  | 0.0014717  | 0.0014717  |   0.0 |  0.39
Output  | 0.007335   | 0.007335   | 0.007335   |   0.0 |  1.96
Modify  | 0          | 0          | 0          |   0.0 |  0.00
Other   |            | 0.0009584  |            |       |  0.26

Nlocal:            240 ave         240 max         240 min
Histogram: 1 0 0 0 0 0 0 0 0 0
Nghost:           3706 ave        3706 max        3706 min
Histogram: 1 0 0 0 0 0 0 0 0 0
Neighs:              0 ave           0 max           0 min
Histogram: 1 0 0 0 0 0 0 0 0 0
FullNghs:        14610 ave       14610 max       14610 min
Histogram: 1 0 0 0 0 0 0 0 0 0

Total # of neighbors = 14610
Ave neighs/atom = 60.875
Neighbor list builds = 1
Dangerous builds = 0

# Obtain new stress tensor

variable tmp equal pe
variable e1 equal ${tmp}
variable e1 equal -1247.93198195514
variable tmp equal press
variable p1 equal ${tmp}
variable p1 equal 10550.0422486207
variable tmp equal pxx
variable pxx1 equal ${tmp}
variable pxx1 equal 13877.6919572669
variable tmp equal pyy
variable pyy1 equal ${tmp}
variable pyy1 equal 24690.8345282212
variable tmp equal pzz
variable pzz1 equal ${tmp}
variable pzz1 equal -6918.39973962611
variable tmp equal pxy
variable pxy1 equal ${tmp}
variable pxy1 equal -1142.805309065
variable tmp equal pxz
variable pxz1 equal ${tmp}
variable pxz1 equal 3822.38441311944
variable tmp equal pyz
variable pyz1 equal ${tmp}
variable pyz1 equal 10174.017822724

# Compute elastic constant from pressure tensor

variable C1pos equal ${d1}
variable C1pos equal -1254957.51134519
variable C2pos equal ${d2}
variable C2pos equal -2330697.83501407
variable C3pos equal ${d3}
variable C3pos equal 276881.699018593
variable C4pos equal ${d4}
variable C4pos equal 172154.11432653
variable C5pos equal ${d5}
variable C5pos equal 130924.340993274
variable C6pos equal ${d6}
variable C6pos equal -231677.783013888

# Combine positive and negative

variable C1${dir} equal 0.5*(${C1neg}+${C1pos})
variable C16 equal 0.5*(${C1neg}+${C1pos})
variable C16 equal 0.5*(1254886.36689691+${C1pos})
variable C16 equal 0.5*(1254886.36689691+-1254957.51134519)
variable C2${dir} equal 0.5*(${C2neg}+${C2pos})
variable C26 equal 0.5*(${C2neg}+${C2pos})
variable C26 equal 0.5*(2330804.86850719+${C2pos})
variable C26 equal 0.5*(2330804.86850719+-2330697.83501407)
variable C3${dir} equal 0.5*(${C3neg}+${C3pos})
variable C36 equal 0.5*(${C3neg}+${C3pos})
variable C36 equal 0.5*(-276239.931349656+${C3pos})
variable C36 equal 0.5*(-276239.931349656+276881.699018593)
variable C4${dir} equal 0.5*(${C4neg}+${C4pos})
variable C46 equal 0.5*(${C4neg}+${C4pos})
variable C46 equal 0.5*(-172499.57820027+${C4pos})
variable C46 equal 0.5*(-172499.57820027+172154.11432653)
variable C5${dir} equal 0.5*(${C5neg}+${C5pos})
variable C56 equal 0.5*(${C5neg}+${C5pos})
variable C56 equal 0.5*(-130760.7250262+${C5pos})
variable C56 equal 0.5*(-130760.7250262+130924.340993274)
variable C6${dir} equal 0.5*(${C6neg}+${C6pos})
variable C66 equal 0.5*(${C6neg}+${C6pos})
variable C66 equal 0.5*(231677.851582549+${C6pos})
variable C66 equal 0.5*(231677.851582549+-231677.783013888)

# Delete dir to make sure it is not reused

variable dir delete

# Output final values

variable C11all equal ${C11}
variable C11all equal 191.696236019954
variable C22all equal ${C22}
variable C22all equal 303.63448306499
variable C33all equal ${C33}
variable C33all equal 1985.20977641499

variable C12all equal 0.5*(${C12}+${C21})
variable C12all equal 0.5*(173.457429619972+${C21})
variable C12all equal 0.5*(173.457429619972+310.010139445076)
variable C13all equal 0.5*(${C13}+${C31})
variable C13all equal 0.5*(-126.117699639988+${C31})
variable C13all equal 0.5*(-126.117699639988+570.225094442489)
variable C23all equal 0.5*(${C23}+${C32})
variable C23all equal 0.5*(412.660432295175+${C32})
variable C23all equal 0.5*(412.660432295175+359.822723410005)

variable C44all equal ${C44}
variable C44all equal -587.271996369993
variable C55all equal ${C55}
variable C55all equal -283.044912690995
variable C66all equal ${C66}
variable C66all equal 0.0342843304970302

variable C14all equal 0.5*(${C14}+${C41})
variable C14all equal 0.5*(-103.731028114911+${C41})
variable C14all equal 0.5*(-103.731028114911+-252.43867643)
variable C15all equal 0.5*(${C15}+${C51})
variable C15all equal 0.5*(185.962873155018+${C51})
variable C15all equal 0.5*(185.962873155018+-12.9284711770015)
variable C16all equal 0.5*(${C16}+${C61})
variable C16all equal 0.5*(-35.5722241400508+${C61})
variable C16all equal 0.5*(-35.5722241400508+1.73084905400174)

variable C24all equal 0.5*(${C24}+${C42})
variable C24all equal 0.5*(129.915226100013+${C42})
variable C24all equal 0.5*(129.915226100013+-204.806838180011)
variable C25all equal 0.5*(${C25}+${C52})
variable C25all equal 0.5*(52.7615845650434+${C52})
variable C25all equal 0.5*(52.7615845650434+45.3803604944987)
variable C26all equal 0.5*(${C26}+${C62})
variable C26all equal 0.5*(53.5167465601116+${C62})
variable C26all equal 0.5*(53.5167465601116+-10.9946046474943)

variable C34all equal 0.5*(${C34}+${C43})
variable C34all equal 0.5*(892.072604478482+${C43})
variable C34all equal 0.5*(892.072604478482+-989.509722604998)
variable C35all equal 0.5*(${C35}+${C53})
variable C35all equal 0.5*(-540.525426333479+${C53})
variable C35all equal 0.5*(-540.525426333479+43.7457601600036)
variable C36all equal 0.5*(${C36}+${C63})
variable C36all equal 0.5*(320.883834468492+${C63})
variable C36all equal 0.5*(320.883834468492+-18.2182456695009)

variable C45all equal 0.5*(${C45}+${C54})
variable C45all equal 0.5*(351.515771634993+${C54})
variable C45all equal 0.5*(351.515771634993+244.438000239505)
variable C46all equal 0.5*(${C46}+${C64})
variable C46all equal 0.5*(-172.731936870012+${C64})
variable C46all equal 0.5*(-172.731936870012+-78.8157119465031)
variable C56all equal 0.5*(${C56}+${C65})
variable C56all equal 0.5*(81.8079835370008+${C65})
variable C56all equal 0.5*(81.8079835370008+86.1001383889961)

print "C11: ${C11}"
C11: 191.696236019954
print "C12: ${C12}"
C12: 173.457429619972
print "C44: ${C44}"
C44: -587.271996369993
Total wall time: 0:00:10
