# LAMMPS data file for WB2_P63/mmc polymorph
12 atoms
2 atom types
0.0 2.982 xlo xhi
0.0 2.982 ylo yhi
0.0 13.87 zlo zhi
0.0 0.0 0.0 xy xz yz

Masses

1 183.84 #W
2 10.81  #B

Atoms # atomic

1 1 1.988 0.994 8.8629
2 1 0.994 1.988 1.9279
3 1 0.994 1.988 5.0071
4 1 1.988 0.994 11.9421
5 2 0.0 0.0 10.4025
6 2 0.0 0.0 3.4675
7 2 0.994 1.988 10.4025
8 2 0.0 0.0 10.4025
9 2 0.0 0.0 3.4675
9 2 1.988 0.994 0.3884
10 2 0.994 1.988 7.3234
11 2 0.994 1.988 13.4816
12 2 1.988 0.994 6.5466