 # File generated with Atomsk by lchubarbos001 on 2024-08-07 18:25:32
  
          12  atoms
           2  atom types
 
      0.000000000000       2.982000000000  xlo xhi
      0.000000000000       2.582487754085  ylo yhi
      0.000000000000      13.870000000000  zlo zhi
     -1.491000000000       0.000000000000       0.000000000000  xy xz yz
 
Masses
 
            1   183.84000000            # W
            2   10.81000000             # B
 
Atoms # atomic
 
         1    1       -0.000001491000       1.721659363553       1.927930000000
         2    2        1.491000000000       2.582487754085       3.467500000000
         3    2       -0.000001491000       1.721659363553      10.402500000000
         4    2       -0.000001491000       1.721659363553      13.481640000000
         5    1        1.491001491000       0.860828390532      11.942070000000
         6    2        0.000000000000       0.000000000000      10.402500000000
         7    2        1.491001491000       0.860828390532       3.467500000000
         8    2        1.491001491000       0.860828390532       0.388360000000
         9    1        1.491001491000       0.860828390532       8.862930000000
        10    2        1.491001491000       0.860828390532       6.546640000000
        11    1       -0.000001491000       1.721659363553       5.007070000000
        12    2       -0.000001491000       1.721659363553       7.323360000000
