# LAMMPS data file for WB2_P63/mmc polymorph
12 atoms
2 atom types
0.0 2.9225 xlo xhi
0.0 2.9225 ylo yhi
0.0 7.75361 zlo zhi
0.0 0.0 0.0 xy xz yz

Masses

1 183.84 #W
2 10.81  #B

Atoms # atomic

1 1 0.9753899999024609 1.9507800000975388 1.0777517900000002
2 1 1.9507800000975388 0.9753899999024609 4.95455679
3 1 1.9507800000975388 0.9753899999024609 -1.0777517900000002
4 1 0.9753899999024609 1.9507800000975388 2.79905321
5 2 0.0 0.0 1.9384025
6 2 0.0 0.0 5.8152075
7 2 0.9753899999024609 1.9507800000975388 5.8152075
8 2 1.9507800000975388 0.9753899999024609 1.9384025
9 2 0.9753899999024609 1.9507800000975388 0.7753610000000001
10 2 1.9507800000975388 0.9753899999024609 4.652166
11 2 1.9507800000975388 0.9753899999024609 -0.7753610000000001
12 2 0.9753899999024609 1.9507800000975388 3.1014440000000003