# LAMMPS data file for W2B5_R3 polymorph
4 atoms
2 atom types
0.0 2.9225 xlo xhi
0.0 4.6563 ylo yhi
0.0 5.9018 zlo zhi
0.0 0.0 0.0 xy xz yz

Masses

1 183.84 #W
2 10.81  #B

Atoms # atomic

1 1 0.0 0.0 0.0
2 2 0.0 0.69261 0.37978
3 2 0.0 0.37978 0.88446
4 2 0.0 0.88446 0.69261
