LAMMPS (7 Feb 2024 - Development - patch_7Feb2024_update1-197-g554f53decb)
  using 6 OpenMP thread(s) per MPI task
using multi-threaded neighbor list subroutines
  using 6 OpenMP thread(s) per MPI task
using multi-threaded neighbor list subroutines
Reading data file ...
  triclinic box = (0 0 0) to (2.9225 4.6563 5.9018) with tilt (0 0 0)
  1 by 1 by 1 MPI processor grid
  reading atoms ...
  4 atoms
  read_data CPU = 0.001 seconds
Replication is creating a 4x4x4 = 64 times larger system...
  triclinic box = (0 0 0) to (11.69 18.6252 23.6072) with tilt (0 0 0)
  1 by 1 by 1 MPI processor grid
  256 atoms
  replicate CPU = 0.001 seconds
Switching to 'neigh_modify every 1 delay 0 check yes' setting during minimization
Last active /omp style is pair_style tersoff/omp
Neighbor list info ...
  update: every = 1 steps, delay = 0 steps, check = yes
  max neighbors/atom: 2000, page size: 100000
  master list distance cutoff = 7.240189
  ghost atom cutoff = 7.240189
  binsize = 3.6200945, bins = 4 6 7
  1 neighbor lists, perpetual/occasional/extra = 1 0 0
  (1) pair tersoff/omp, perpetual
      attributes: full, newton on, omp
      pair build: full/bin/atomonly/omp
      stencil: full/bin/3d
      bin: standard
Setting up cg style minimization ...
  Unit style    : metal
  Current step  : 0
WARNING: Energy due to 3 extra global DOFs will be included in minimizer energies
 (src/min.cpp:219)
Per MPI rank memory allocation (min/avg/max) = 8.677 | 8.677 | 8.677 Mbytes
   Step          Temp          Press          TotEng         Volume         Cella          Cellc     
         0   0              63854484       275363.66      5139.9623      11.69          23.6072      
        10   0              62272636       270250.81      5216.272       11.695788      23.708737    
        20   0              60733590       265233.23      5293.0082      11.701629      23.809765    
        30   0              59235981       260309.15      5370.1707      11.707523      23.910293    
        40   0              57778499       255476.8       5447.7595      11.713468      24.01033     
        50   0              56359885       250734.44      5525.7743      11.719463      24.109887    
        60   0              54978926       246080.4       5604.2151      11.725507      24.208972    
        70   0              53634458       241513.01      5683.0816      11.731598      24.307595    
        80   0              52325360       237030.65      5762.3735      11.737735      24.405763    
        90   0              51054582       232631.71      5842.0928      11.743921      24.503487    
       100   0              49817847       228314.58      5922.2457      11.750166      24.600775    
       110   0              48613088       224077.71      6002.8323      11.756469      24.697635    
       120   0              47447734       219919.6       6083.8554      11.762835      24.794076    
       130   0              46322958       215838.5       6165.3424      11.769312      24.890104    
       140   0              45226262       211832.92      6247.3019      11.775916      24.985728    
       150   0              44156831       207901.44      6329.7356      11.782643      25.080954    
       160   0              43113865       204042.68      6412.6451      11.789494      25.175791    
       170   0              42096597       200255.29      6496.0316      11.796465      25.270245    
       180   0              41104286       196537.94      6579.8965      11.803555      25.364323    
       190   0              40136220       192889.33      6664.2407      11.810762      25.458034    
       200   0              39191710       189308.19      6749.0654      11.818083      25.551383    
       210   0              38270096       185793.27      6834.3711      11.825516      25.644377    
       220   0              37370738       182343.36      6920.1586      11.833057      25.737023    
       230   0              36493022       178957.24      7006.4282      11.840704      25.829327    
       240   0              35636355       175633.75      7093.18        11.848453      25.921297    
       250   0              34800166       172371.73      7180.4142      11.856299      26.012937    
       260   0              33983906       169170.07      7268.1304      11.86424       26.104255    
       270   0              33187044       166027.65      7356.3282      11.872271      26.195256    
       280   0              32409381       162943.4       7445.007       11.880387      26.285946    
       290   0              31652373       159916.22      7534.1717      11.888593      26.376332    
       300   0              30913142       156945.04      7623.8263      11.896892      26.466419    
       310   0              30191232       154028.86      7713.9698      11.905278      26.556213    
       320   0              29486203       151166.66      7804.6012      11.913747      26.64572     
       330   0              28797630       148357.48      7895.7191      11.922294      26.734945    
       340   0              28125105       145600.34      7987.3221      11.930912      26.823893    
       350   0              27468233       142894.31      8079.4082      11.939597      26.91257     
       360   0              26826632       140238.47      8171.9753      11.948342      27.000981    
       370   0              26199934       137631.9       8265.0212      11.957142      27.089132    
       380   0              25587785       135073.72      8358.5432      11.96599       27.177026    
       390   0              24989842       132563.05      8452.5385      11.97488       27.26467     
       400   0              24405774       130099.04      8547.0041      11.983806      27.352068    
       410   0              23835259       127680.84      8641.9367      11.992761      27.439226    
       420   0              23278510       125307.64      8737.333       12.001739      27.526147    
       430   0              22737369       122978.56      8833.2031      12.010752      27.612837    
       440   0              22208676       120692.79      8929.5528      12.019806      27.699301    
       450   0              21692153       118449.54      9026.3793      12.028896      27.785542    
       460   0              21187528       116248.04      9123.6792      12.038014      27.871566    
       470   0              20694538       114087.55      9221.4491      12.047154      27.957377    
       480   0              20212928       111967.33      9319.6854      12.056311      28.042979    
       490   0              19742448       109886.64      9418.3843      12.065478      28.128377    
       500   0              19282857       107844.77      9517.542       12.074648      28.213574    
       510   0              18833916       105841.03      9617.1545      12.083816      28.298576    
       520   0              18395396       103874.71      9717.2176      12.092976      28.383387    
       530   0              17967069       101945.15      9817.7272      12.102121      28.46801     
       540   0              17548712       100051.67      9918.6788      12.111245      28.55245     
       550   0              17140107       98193.617      10020.068      12.120343      28.636711    
       560   0              16741041       96370.35       10121.89       12.129408      28.720796    
       570   0              16351302       94581.232      10224.141      12.138435      28.804711    
       580   0              15970686       92825.641      10326.815      12.147419      28.888459    
       590   0              15598988       91102.963      10429.909      12.156353      28.972044    
       600   0              15236012       89412.597      10533.416      12.165232      29.05547     
       610   0              14881564       87753.95       10637.333      12.174052      29.138741    
       620   0              14535453       86126.44       10741.653      12.182805      29.22186     
       630   0              14197494       84529.494      10846.372      12.191488      29.304832    
       640   0              13867505       82962.55       10951.485      12.200095      29.387661    
       650   0              13545309       81425.054      11056.987      12.208621      29.47035     
       660   0              13230731       79916.463      11162.872      12.217062      29.552903    
       670   0              12923603       78436.241      11269.136      12.225412      29.635324    
       680   0              12623757       76983.862      11375.773      12.233668      29.717617    
       690   0              12331030       75558.811      11482.777      12.241825      29.799786    
       700   0              12048727       74160.504      11590.164      12.249898      29.881834    
       710   0              11773507       72788.316      11697.967      12.257924      29.963767    
       720   0              11504580       71441.768      11806.183      12.2659        30.045589    
       730   0              11241812       70120.388      11914.806      12.273818      30.127303    
       740   0              10985068       68823.717      12023.831      12.281675      30.208912    
       750   0              10734219       67551.3        12133.252      12.289463      30.290421    
       760   0              10489138       66302.692      12243.064      12.297179      30.371833    
       770   0              10249700       65077.453      12353.261      12.304817      30.453151    
       780   0              10015784       63875.154      12463.837      12.312371      30.534379    
       790   0              9787268.5      62695.371      12574.786      12.319838      30.615521    
       800   0              9564037.8      61537.688      12686.103      12.327211      30.696579    
       810   0              9345976.7      60401.695      12797.783      12.334486      30.777558    
       820   0              9132972.5      59286.991      12909.819      12.34166       30.85846     
       830   0              8924914.8      58193.179      13022.206      12.348726      30.93929     
       840   0              8721695.1      57119.872      13134.937      12.355682      31.020051    
       850   0              8523207.1      56066.687      13248.009      12.362523      31.100746    
       860   0              8329346.3      55033.249      13361.414      12.369246      31.181379    
       870   0              8140010.2      54019.19       13475.148      12.375845      31.261953    
       880   0              7955098.2      53024.146      13589.204      12.382319      31.342472    
       890   0              7774511.4      52047.762      13703.579      12.388663      31.42294     
       900   0              7598152.8      51089.686      13818.266      12.394875      31.503358    
       910   0              7425927.2      50149.576      13933.26       12.40095       31.583732    
       920   0              7257741        49227.093      14048.556      12.406887      31.664065    
       930   0              7093502.4      48321.906      14164.149      12.412683      31.74436     
       940   0              6933121.3      47433.688      14280.035      12.418335      31.82462     
       950   0              6776509.2      46562.119      14396.208      12.42384       31.904849    
       960   0              6623579.2      45706.884      14512.664      12.429197      31.985051    
       970   0              6474246.3      44867.674      14629.398      12.434403      32.065229    
       980   0              6328426.7      44044.186      14746.406      12.439456      32.145386    
       990   0              6186038.6      43236.122      14863.683      12.444355      32.225526    
      1000   0              6047001.7      42443.189      14981.226      12.449098      32.305653    
      1010   0              5911237        41665.101      15099.03       12.453684      32.385769    
      1020   0              5778667.4      40901.575      15217.09       12.45811       32.465879    
      1030   0              5649217.4      40152.334      15335.404      12.462375      32.545985    
      1040   0              5522812.7      39417.107      15453.968      12.46648       32.626092    
      1050   0              5399380.8      38695.628      15572.776      12.470421      32.706202    
      1060   0              5278850.8      37987.633      15691.827      12.474199      32.78632     
      1070   0              5161153.2      37292.868      15811.116      12.477813      32.866449    
      1080   0              5046219.8      36611.079      15930.641      12.481261      32.946592    
      1090   0              4933984.4      35942.02       16050.397      12.484544      33.026752    
      1100   0              4824381.8      35285.447      16170.381      12.48766       33.106934    
      1110   0              4717348.4      34641.123      16290.59       12.490609      33.18714     
      1120   0              4612822.2      34008.814      16411.022      12.49339       33.267375    
      1130   0              4510742.4      33388.291      16531.673      12.496004      33.347641    
      1140   0              4411049.7      32779.329      16652.541      12.498449      33.427943    
      1150   0              4313686.3      32181.708      16773.621      12.500727      33.508283    
      1160   0              4220165.1      31595.186      16894.953      12.502866      33.588664    
      1170   0              4129098.4      31019.506      17016.63       12.504938      33.669087    
      1180   0              4040055.7      30454.461      17138.654      12.506945      33.749555    
      1190   0              3952990.9      29899.852      17261.025      12.508885      33.830071    
      1200   0              3867859.2      29355.483      17383.741      12.510758      33.910639    
      1210   0              3784616.5      28821.163      17506.8        12.512563      33.991261    
      1220   0              3703220.2      28296.702      17630.201      12.514297      34.071941    
      1230   0              3623628.2      27781.915      17753.943      12.515961      34.152682    
      1240   0              3545799.6      27276.621      17878.024      12.517552      34.233488    
      1250   0              3469694.5      26780.642      18002.444      12.51907       34.314361    
      1260   0              3395273.7      26293.802      18127.2        12.520514      34.395305    
      1270   0              3322499.2      25815.93       18252.29       12.521883      34.476323    
      1280   0              3251333.5      25346.858      18377.715      12.523175      34.557418    
      1290   0              3181740.3      24886.42       18503.472      12.524389      34.638594    
      1300   0              3113684        24434.454      18629.56       12.525525      34.719853    
      1310   0              3047129.8      23990.801      18755.977      12.526581      34.801199    
      1320   0              2982043.7      23555.305      18882.722      12.527556      34.882636    
      1330   0              2918392.5      23127.813      19009.793      12.52845       34.964166    
      1340   0              2856143.7      22708.174      19137.19       12.529261      35.045793    
      1350   0              2795265.6      22296.241      19264.91       12.529989      35.12752     
      1360   0              2735894.1      21891.869      19392.953      12.530632      35.20935     
      1370   0              2678697.4      21494.891      19521.415      12.531249      35.2913      
      1380   0              2622720.3      21105.154      19650.364      12.531876      35.373383    
      1390   0              2567935.8      20722.523      19779.803      12.532515      35.455603    
      1400   0              2514317.7      20346.865      19909.737      12.533166      35.537963    
      1410   0              2461840.6      19978.05       20040.168      12.533829      35.620466    
      1420   0              2410479.2      19615.949      20171.101      12.534504      35.703117    
      1430   0              2360209.3      19260.437      20302.54       12.535191      35.785919    
      1440   0              2311006.9      18911.392      20434.488      12.535891      35.868876    
      1450   0              2262848.6      18568.691      20566.95       12.536604      35.95199     
      1460   0              2215711.7      18232.217      20699.929      12.53733       36.035267    
      1470   0              2169573.9      17901.854      20833.431      12.53807       36.118709    
      1480   0              2124413.3      17577.486      20967.458      12.538822      36.20232     
      1490   0              2080208.7      17259.003      21102.015      12.539589      36.286103    
      1500   0              2036939.2      16946.295      21237.107      12.54037       36.370064    
      1510   0              1994595        16639.252      21372.737      12.541165      36.454204    
      1520   0              1953157.9      16337.768      21508.911      12.541974      36.538527    
      1530   0              1912595.7      16041.737      21645.632      12.542798      36.623038    
      1540   0              1872889.4      15751.057      21782.905      12.543637      36.70774     
      1550   0              1834020.4      15465.63       21920.734      12.544491      36.792637    
      1560   0              1795970.6      15185.357      22059.124      12.545361      36.877731    
      1570   0              1758722.1      14910.141      22198.079      12.546246      36.963028    
      1580   0              1722276.9      14639.889      22337.604      12.547146      37.04853     
      1590   0              1686678.9      14374.497      22477.704      12.548063      37.13424     
      1600   0              1651829        14113.871      22618.382      12.548995      37.220163    
      1610   0              1617710.2      13857.92       22759.643      12.549944      37.306302    
      1620   0              1584306.1      13606.56       22901.492      12.550909      37.392658    
      1630   0              1551600.3      13359.704      23043.932      12.551891      37.479236    
      1640   0              1519577.2      13117.269      23186.969      12.55289       37.566038    
      1650   0              1488221.5      12879.174      23330.607      12.553906      37.653067    
      1660   0              1457517.9      12645.339      23474.85       12.554939      37.740327    
      1670   0              1427452        12415.685      23619.704      12.555989      37.82782     
      1680   0              1398009.4      12190.136      23765.172      12.557057      37.915549    
      1690   0              1369176.1      11968.617      23911.26       12.558143      38.003517    
      1700   0              1340938.8      11751.053      24057.972      12.559248      38.091728    
      1710   0              1313284        11537.373      24205.313      12.56037       38.180185    
      1720   0              1286198.9      11327.506      24353.289      12.561512      38.26889     
      1730   0              1259671.1      11121.382      24501.904      12.562672      38.357846    
      1740   0              1233688.2      10918.934      24651.163      12.563852      38.447057    
      1750   0              1208238.4      10720.095      24801.071      12.56505       38.536526    
      1760   0              1183310.2      10524.799      24951.635      12.566269      38.626257    
      1770   0              1158892.2      10332.982      25102.859      12.567508      38.716252    
      1780   0              1134973.5      10144.583      25254.749      12.568767      38.806514    
      1790   0              1111543.4      9959.5376      25407.31       12.570047      38.897047    
      1800   0              1088591.7      9777.7869      25560.549      12.571348      38.987855    
      1810   0              1066108.1      9599.2714      25714.471      12.572671      39.078941    
      1820   0              1044083        9423.9326      25869.082      12.574015      39.170308    
      1830   0              1022506.8      9251.7134      26024.389      12.575382      39.26196     
      1840   0              1001370.4      9082.5578      26180.398      12.576772      39.353901    
      1850   0              980664.69      8916.4105      26337.116      12.578185      39.446134    
      1860   0              960381.05      8753.2173      26494.549      12.579621      39.538663    
      1870   0              940511.04      8592.9252      26652.704      12.581083      39.631491    
      1880   0              921046.47      8435.4817      26811.588      12.582569      39.724623    
      1890   0              901979.37      8280.8355      26971.209      12.584081      39.818063    
      1900   0              883302.02      8128.936       27131.573      12.585619      39.911814    
      1910   0              865006.87      7979.7335      27292.689      12.587184      40.00588     
      1920   0              847086.57      7833.1791      27454.564      12.588776      40.100265    
      1930   0              829561.51      7689.223       27617.206      12.590397      40.194974    
      1940   0              812406.84      7547.8134      27780.622      12.592047      40.290009    
      1950   0              795604.49      7408.9034      27944.819      12.593725      40.385376    
      1960   0              779147.32      7272.4475      28109.806      12.595434      40.481077    
      1970   0              763028.32      7138.4008      28275.59       12.597173      40.577118    
      1980   0              747240.63      7006.7194      28442.179      12.598942      40.673502    
      1990   0              731777.55      6877.3598      28609.581      12.600743      40.770234    
      2000   0              716675.48      6750.2774      28777.803      12.602576      40.867317    
      2010   0              701908.83      6625.422       28946.854      12.60444       40.964755    
      2020   0              687445.88      6502.752       29116.739      12.606338      41.062549    
      2030   0              673280.25      6382.2277      29287.467      12.608268      41.160705    
      2040   0              659405.69      6263.8098      29459.046      12.610233      41.259224    
      2050   0              645816.08      6147.4601      29631.483      12.612231      41.35811     
      2060   0              633447.41      6033.1306      29804.786      12.614264      41.457366    
      2070   0              627802.53      5919.9809      29978.841      12.616318      41.556876    
      2080   0              621814         5807.5424      30153.566      12.618383      41.656553    
      2090   0              615478.04      5695.8813      30328.971      12.620459      41.756403    
      2100   0              608793.91      5585.0648      30505.066      12.62255       41.856436    
      2110   0              601763.65      5475.1605      30681.864      12.624655      41.956657    
      2120   0              594392.01      5366.2359      30859.377      12.626777      42.057078    
      2130   0              586686.21      5258.3576      31037.62       12.628918      42.157708    
      2140   0              578655.75      5151.5917      31216.607      12.631078      42.258559    
      2150   0              570312.25      5046.0023      31396.356      12.633261      42.359641    
      2160   0              561669.27      4941.652       31576.881      12.635468      42.460968    
      2170   0              552742.08      4838.6011      31758.203      12.6377        42.562553    
      2180   0              543547.52      4736.9073      31940.339      12.63996       42.66441     
      2190   0              534103.8       4636.6256      32123.31       12.642251      42.766555    
      2200   0              524430.31      4537.8078      32307.137      12.644573      42.869003    
      2210   0              514547.46      4440.5025      32491.842      12.64693       42.971771    
      2220   0              504476.5       4344.7547      32677.448      12.649323      43.074876    
      2230   0              494239.36      4250.6055      32863.98       12.651755      43.178336    
      2240   0              483858.48      4158.0925      33051.462      12.654229      43.282171    
      2250   0              473356.66      4067.2491      33239.923      12.656747      43.386399    
      2260   0              462756.91      3978.1045      33429.388      12.659311      43.491041    
      2270   0              452082.31      3890.6841      33619.888      12.661925      43.596119    
      2280   0              441355.86      3805.0089      33811.452      12.664591      43.701653    
      2290   0              430600.39      3721.0957      34004.11       12.667312      43.807666    
      2300   0              419838.41      3638.9572      34197.896      12.67009       43.914182    
      2310   0              409091.99      3558.6018      34392.842      12.67293       44.021223    
      2320   0              398394.62      3480.0333      34588.983      12.675833      44.128814    
      2330   0              387763.17      3403.2495      34786.35       12.678803      44.236976    
      2340   0              377209.72      3328.2466      34984.979      12.681843      44.345734    
      2350   0              366753.74      3255.0172      35184.905      12.684955      44.455112    
      2360   0              356413.81      3183.5502      35386.166      12.688142      44.565137    
      2370   0              346207.62      3113.8307      35588.799      12.691409      44.675834    
      2380   0              336151.84      3045.8407      35792.842      12.694756      44.787228    
      2390   0              326262.15      2979.5588      35998.335      12.698188      44.899345    
      2400   0              316553.14      2914.9605      36205.315      12.701708      45.012212    
      2410   0              309661.83      2851.9016      36413.673      12.70531       45.125695    
      2420   0              305356.96      2789.7215      36622.382      12.708943      45.238697    
      2430   0              301077.48      2728.3192      36831.216      12.712598      45.350979    
      2440   0              296780.88      2667.6978      37040.161      12.716275      45.462527    
      2450   0              292427.25      2607.867       37249.216      12.719974      45.573342    
      2460   0              287979.96      2548.8428      37458.394      12.723697      45.68344     
      2470   0              283406.2       2490.647       37667.722      12.727446      45.792849    
      2480   0              278677.54      2433.3068      37877.24       12.731225      45.901613    
      2490   0              273770.49      2376.8536      38087.001      12.735036      46.009787    
      2500   0              268667.01      2321.3228      38297.069      12.738884      46.117437    
      2510   0              263354.93      2266.7525      38507.522      12.742773      46.224641    
      2520   0              257937.19      2213.182       38718.448      12.74671       46.331487    
      2530   0              254276.88      2160.4228      38929.796      12.750681      46.437957    
      2540   0              250234.96      2108.3509      39141.536      12.754677      46.544054    
      2550   0              245826.47      2057.0365      39353.793      12.758704      46.6499      
      2560   0              241073.59      2006.5467      39566.699      12.762772      46.755623    
      2570   0              236005.14      1956.944       39780.389      12.766888      46.86135     
      2580   0              230655.98      1908.285       39995.001      12.771061      46.967211    
      2590   0              225066.14      1860.6194      40210.676      12.775297      47.073335    
      2600   0              219279.87      1813.9889      40427.554      12.779606      47.179849    
      2610   0              213344.45      1768.4266      40645.775      12.783996      47.286877    
      2620   0              207308.98      1723.9561      40865.475      12.788474      47.39454     
      2630   0              201223.01      1680.5919      41086.788      12.793048      47.502952    
      2640   0              195135.31      1638.3386      41309.84       12.797724      47.61222     
      2650   0              189092.53      1597.1922      41534.75       12.80251       47.722443    
      2660   0              183138.09      1557.1396      41761.626      12.807411      47.833706    
      2670   0              177311.14      1518.1602      41990.564      12.812431      47.946084    
      2680   0              171645.76      1480.2266      42221.645      12.817576      48.059637    
      2690   0              166170.34      1443.3055      42454.934      12.822848      48.174407    
      2700   0              160907.26      1407.3592      42690.481      12.828248      48.290425    
      2710   0              155872.71      1372.3468      42928.316      12.833779      48.4077      
      2720   0              151076.84      1338.2252      43168.453      12.839439      48.526228    
      2730   0              146524.06      1304.9504      43410.889      12.845229      48.64599     
      2740   0              142213.51      1272.4784      43655.605      12.851146      48.766951    
      2750   0              138139.73      1240.7665      43902.57       12.857188      48.889065    
      2760   0              134293.35      1209.7735      44151.742      12.863353      49.012277    
      2770   0              130661.89      1179.4605      44403.069      12.869636      49.136525    
      2780   0              127230.56      1149.7917      44656.496      12.876035      49.261742    
      2790   0              123983.08      1120.7341      44911.968      12.882547      49.387861    
      2800   0              120902.42      1092.258       45169.429      12.889169      49.514815    
      2810   0              117971.43      1064.3367      45428.827      12.895899      49.64254     
      2820   0              115173.48      1036.9468      45690.116      12.902735      49.77098     
      2830   0              112492.92      1010.0677      45953.258      12.909676      49.90008     
      2840   0              109916.37      983.68151      46218.222      12.916723      50.029795    
      2850   0              107474.24      957.76859      46484.958      12.923873      50.160066    
      2860   0              105110.25      932.31204      46753.412      12.931123      50.290833    
      2870   0              102814.74      907.30032      47023.567      12.938472      50.422071    
      2880   0              100579.79      882.72334      47295.412      12.94592       50.553758    
      2890   0              98399.151      858.57221      47568.942      12.953465      50.685879    
      2900   0              96267.994      834.83893      47844.158      12.961109      50.818423    
      2910   0              94182.7        811.51621      48121.062      12.968852      50.951382    
      2920   0              92140.576      788.59724      48399.662      12.976693      51.08475     
      2930   0              90139.563      766.0756       48679.968      12.984635      51.218523    
      2940   0              88180.294      743.94494      48961.986      12.992676      51.352695    
      2950   0              86275.818      722.19769      49245.737      13.000819      51.487275    
      2960   0              84423.157      700.81981      49531.294      13.00906       51.622332    
      2970   0              82606.851      679.80427      49818.674      13.017399      51.757881    
      2980   0              80826.327      659.14544      50107.884      13.025834      51.893924    
      2990   0              79081.025      638.83772      50398.929      13.034362      52.030461    
      3000   0              77370.396      618.87558      50691.813      13.042983      52.167494    
      3010   0              75693.907      599.25356      50986.543      13.051692      52.305025    
      3020   0              76322.837      579.83552      51281.761      13.060399      52.442028    
      3030   0              78063.14       560.19486      51572.13       13.068749      52.574487    
      3040   0              79624.561      540.30624      51857.769      13.076751      52.702555    
      3050   0              81012.542      520.18247      52139.338      13.084447      52.826784    
      3060   0              82386.758      499.8104       52417.668      13.091871      52.94793     
      3070   0              83571.837      479.18599      52693.502      13.099052      53.06667     
      3080   0              84569.15       458.33824      52967.234      13.106019      53.183314    
      3090   0              85380.688      437.29815      53239.213      13.112797      53.298139    
      3100   0              86009.025      416.09815      53509.749      13.119408      53.411391    
      3110   0              86197.364      394.79292      53779.281      13.12588       53.523413    
      3120   0              86140.846      373.4585       54048.385      13.13225       53.634645    
      3130   0              85891.917      352.13634      54317.236      13.138534      53.74521     
      3140   0              85447.51       330.86852      54586.002      13.144745      53.855224    
      3150   0              84806.612      309.69806      54854.849      13.150898      53.964801    
      3160   0              83970.438      288.66835      55123.953      13.157006      54.074063    
      3170   0              82942.558      267.82251      55393.492      13.163082      54.183137    
      3180   0              81728.967      247.20282      55663.654      13.16914       54.292153    
      3190   0              80338.097      226.85006      55934.631      13.175191      54.40125     
      3200   0              78780.769      206.80296      56206.624      13.181248      54.510572    
      3210   0              77070.069      187.09756      56479.84       13.187321      54.620271    
      3220   0              75221.159      167.76667      56754.494      13.19342       54.730506    
      3230   0              73251.014      148.83943      57030.808      13.199557      54.841441    
      3240   0              71178.104      130.34082      57309.008      13.205738      54.953252    
      3250   0              69022.021      112.29136      57589.327      13.211972      55.066121    
      3260   0              66803.062      94.706874      57872.001      13.218263      55.180236    
      3270   0              64541.804      77.598323      58157.267      13.224615      55.295797    
      3280   0              62258.674      60.97176       58445.365      13.231029      55.413011    
      3290   0              59973.552      44.828367      58736.532      13.237501      55.532096    
      3300   0              57705.423      29.16456       59031.001      13.244025      55.65328     
      3310   0              55472.098      13.972138      59329.002      13.25059       55.776803    
      3320   0              53290.046     -0.76154555     59630.756      13.257178      55.902924    
      3330   0              51174.325     -15.053437      59936.477      13.263766      56.03192     
      3340   0              49138.657     -28.924713      60246.371      13.270322      56.164094    
      3350   0              47195.663     -42.400839      60560.633      13.276802      56.299782    
      3360   0              45357.277     -55.511849      60879.453      13.283152      56.439369    
      3370   0              43635.41      -68.292952      61203.019      13.289303      56.5833      
      3380   0              42042.942     -80.785634      61531.525      13.295165      56.732105    
      3390   0              40595.209     -93.039529      61865.182      13.300627      56.886436    
      3400   0              39312.309     -105.11552      62204.238      13.305547      57.047106    
      3410   0              38222.823     -117.09087      62549.014      13.309746      57.215167    
      3420   0              37370.169     -129.06797      62899.948      13.312991      57.39201     
      3430   0              36824.149     -141.18974      63257.689      13.314981      57.579526    
      3440   0              36703.443     -153.66834      63623.239      13.315318      57.780368    
      3450   0              37222.851     -166.84222      63998.217      13.313467      57.998365    
      3460   0              38745.215     -180.93118      64375.882      13.30885       58.233147    
      3470   0              41620.503     -195.46239      64728.392      13.30156       58.469219    
      3480   0              46312.176     -211.00692      65055.26       13.291887      58.705291    
      3490   0              53213.39      -228.40753      65359.454      13.280202      58.941363    
      3500   0              61516.294     -248.53238      65644.337      13.266758      59.177435    
      3510   0              65121.332     -271.26639      65910.874      13.251044      59.413507    
      3520   0              46711.981     -292.54595      66145.77       13.228903      59.649579    
      3530   0              15670.758     -304.82621      66152.212      13.159631      59.856773    
      3540   0              14491.197     -314.21406      65927.672      13.052076      60.012082    
      3550   0              13011.26      -323.44991      65650.763      12.935574      60.169933    
      3560   0              11729.003     -331.91569      65341.24       12.818674      60.318724    
      3570   0              10613.834     -339.76412      65004.427      12.701774      60.459145    
      3580   0              9637.5231     -347.13136      64643.995      12.584874      60.592256    
      3590   0              8777.8429     -354.11803      64263.006      12.467974      60.718969    
      3600   0              8017.1901     -360.79894      63864.044      12.351074      60.840085    
      3610   0              7341.5505     -367.22978      63449.309      12.234174      60.956314    
      3620   0              6739.7209     -373.45185      63020.698      12.117274      61.068298    
      3630   0              6202.9407     -379.49538      62579.864      12.000374      61.176631    
      3640   0              5879.6242     -385.33639      62131.963      11.883474      61.284351    
      3650   0              5575.41       -390.95504      61682.335      11.766574      61.394987    
      3660   0              5279.2804     -396.36685      61231.094      11.649674      61.508753    
      3670   0              4984.3962     -401.58967      60777.831      11.532774      61.625488    
      3680   0              4688.7376     -406.64164      60321.731      11.415874      61.744693    
      3690   0              4395.0199     -411.53929      59861.831      11.298974      61.865679    
      3700   0              4109.3048     -416.2963       59397.336      11.182074      61.987807    
      3710   0              3838.9664     -420.92284      58927.884      11.065174      62.110714    
      3720   0              3819.9957     -425.43604      58454.955      10.948274      62.234775    
      3730   0              3839.2351     -429.85394      57981.613      10.831374      62.361116    
      3740   0              3870.4748     -434.17302      57509.222      10.714474      62.490946    
      3750   0              3917.6923     -438.3914       57039.993      10.597574      62.626279    
      3760   0              3982.6273     -442.51484      56577.434      10.480674      62.770344    
      3770   0              4191.5191     -446.58853      56134.553      10.363774      62.934815    
      3780   0              4441.6354     -450.83444      55768.243      10.25054       63.153047    
      3790   0              4449.3799     -454.54904      55622.482      10.174978      63.389119    
      3800   0              4231.0594     -457.88315      55651.395      10.131847      63.625191    
      3810   0              3912.5627     -461.06846      55791.185      10.109104      63.861263    
      3820   0              3536.1591     -464.19687      55995.8        10.098146      64.097335    
      3830   0              3130.0241     -467.31426      56235.074      10.093378      64.333407    
      3840   0              2709.3008     -470.46105      56491.39       10.091545      64.569479    
      3850   0              2279.2444     -473.69288      56755.577      10.090945      64.805551    
      3860   0              1837.2038     -477.10372      57023.557      10.090788      65.041623    
      3870   0              1370.7573     -480.8843       57294.148      10.090759      65.277695    
      3880   0              840.61663     -485.57335      57568.338      10.090756      65.513767    
      3890   0             -258.48402     -498.57173      57811.025      10.090755      65.700278    
      3900   0             -528.39571     -505.02837      57562.724      10.090755      65.464206    
      3910   0             -632.09772     -509.34741      57307.613      10.090755      65.228134    
      3920   0             -682.5306      -513.05768      57049.914      10.090755      64.992062    
      3930   0             -109.23991     -516.52224      56829.264      10.090761      64.75599     
      3940   0              28.611291     -519.72914      56689.116      10.090768      64.519918    
      3950   0              28.818991     -522.54886      56557.637      10.090771      64.283846    
      3960   0              17.584436     -525.10093      56423.709      10.090772      64.047774    
      3970   0              8.8331222     -527.4748       56287.121      10.090772      63.811702    
      3980   0              3.3339666     -529.72403      56148.502      10.090773      63.57563     
      3990   0              0.38152005    -531.88216      56008.361      10.090773      63.339558    
      4000   0             -56.690296     -533.91961      55864.064      10.090773      63.103486    
      4010   0             -96.356547     -535.74971      55711.702      10.090774      62.867414    
      4020   0             -122.47775     -537.4396       55555.268      10.090775      62.631342    
      4030   0             -142.78625     -539.02986      55396.168      10.090776      62.39527     
      4040   0             -159.56603     -540.54511      55235.035      10.090777      62.159198    
      4050   0             -173.7756      -542.00175      55072.239      10.090778      61.923126    
      4060   0             -185.94995     -543.41129      54908.038      10.090778      61.687054    
      4070   0             -196.44534     -544.78218      54742.616      10.090779      61.450982    
      4080   0             -205.52249     -546.12078      54576.118      10.09078       61.21491     
      4090   0             -213.3822      -547.43201      54408.658      10.09078       60.978838    
      4100   0             -220.18394     -548.71974      54240.325      10.090781      60.742766    
      4110   0             -226.05698     -549.98707      54071.196      10.090781      60.506694    
      4120   0             -231.10781     -551.23648      53901.332      10.090781      60.270622    
      4130   0             -235.42517     -552.47005      53730.786      10.090782      60.03455     
      4140   0             -239.0838      -553.68946      53559.602      10.090782      59.798478    
      4150   0             -242.14709     -554.89611      53387.819      10.090782      59.562406    
      4160   0             -244.66911     -556.09119      53215.47       10.090783      59.326334    
      4170   0             -246.69626     -557.27569      53042.584      10.090783      59.090262    
      4180   0             -248.26838     -558.45044      52869.187      10.090783      58.85419     
      4190   0             -249.41974     -559.61614      52695.301      10.090783      58.618118    
      4200   0             -250.17982     -560.77341      52520.946      10.090783      58.382046    
      4210   0             -250.57386     -561.92274      52346.141      10.090783      58.145974    
      4220   0              1097.2719     -563.0356       52256.414      10.090802      57.985103    
      4230   0              12723.471     -564.52745      52243.158      10.090792      57.878499    
      4240   0             -1469.153      -566.80721      52272.821      10.090792      57.823033    
      4250   0              10032.974     -568.74813      52232.177      10.090734      57.721183    
      4260   0              4803.4142     -570.62115      52225.459      10.090829      57.652554    
      4270   0              2823.527      -572.65172      52204.938      10.090839      57.562005    
      4280   0             -1219.9055     -574.38706      52186.56       10.090813      57.483597    
      4290   0             -2079.2435     -576.14213      52155.971      10.090804      57.392433    
      4300   0             -1029.8648     -577.5922       52125.094      10.090831      57.309098    
      4310   0              2372.6396     -579.22502      52064.276      10.090804      57.192741    
      4320   0             -2390.1985     -580.86227      52045.858      10.090922      57.110287    
      4330   0             -965.15409     -582.13191      51979.16       10.090929      57.003859    
      4340   0             -2170.7997     -583.90275      51930.037      10.090942      56.887702    
      4350   0              1091.7593     -585.55843      51843.63       10.090881      56.746453    
      4360   0              1656.7383     -587.14682      51776.376      10.090919      56.619498    
      4370   0             -524.17993     -588.35971      51729.556      10.090913      56.522311    
      4380   0             -2693.502      -589.82446      51666.063      10.090908      56.406344    
      4390   0              360.27437     -590.8767       51593.072      10.090899      56.297147    
      4400   0             -1287.0593     -592.19723      51495.334      10.090822      56.155902    
      4410   0             -2694.1671     -593.42735      51433.837      10.091104      56.041838    
      4420   0             -2120.6863     -594.85298      51334.624      10.09164       55.889952    
      4430   0              416.69128     -595.84719      51240.678      10.090576      55.763898    
      4440   0             -2869.1937     -596.75932      51239.646      10.090446      55.710792    
      4450   0             -2262.4528     -597.74313      51113.422      10.090187      55.563122    
      4460   0              2390.2109     -598.5902       51013.316      10.090904      55.42864     
      4470   0              775.04337     -599.61226      50938.751      10.090114      55.312347    
      4480   0             -836.43123     -600.50893      50866.555      10.090961      55.199335    
      4490   0              5866.3965     -601.39465      50754.752      10.09071       55.0512      
      4500   0              1479.3998     -602.23877      50667.389      10.090803      54.936132    
      4510   0             -1844.0495     -603.0062       50604.107      10.091223      54.82795     
      4520   0             -392.98106     -603.64006      50545.275      10.092464      54.731847    
      4530   0              6655.6755     -604.24991      50417.685      10.086768      54.595175    
      4540   0             -502.40927     -605.07737      50346.966      10.091655      54.470898    
      4550   0              156.80963     -605.56037      50278.977      10.092063      54.368188    
      4560   0             -2360.347      -606.23768      50238.565      10.089223      54.285769    
      4570   0              722.42958     -606.83562      50069.005      10.087273      54.114817    
      4580   0             -419.14439     -607.37365      49968.843      10.090295      53.945091    
      4590   0             -1419.3319     -607.86943      49889.286      10.090664      53.838916    
      4600   0             -2032.2205     -608.15667      49854.936      10.091128      53.761546    
      4610   0             -1697.0326     -608.63251      49725.756      10.090852      53.599915    
      4620   0              1608.3244     -608.90553      49602.626      10.090796      53.458637    
      4630   0              229.21659     -609.05232      49556.673      10.090819      53.385524    
      4640   0              621.71792     -609.25787      49497.319      10.091852      53.297484    
      4650   0              500.3658      -609.35755      49454.966      10.092512      53.231273    
      4660   0              128.76156     -609.43229      49416.278      10.09298       53.185801    
      4670   0             -355.85982     -609.54393      49345.507      10.094399      53.060878    
      4680   0              171.016       -609.60856      49315.662      10.095077      53.027874    
      4690   0              27.810066     -609.62461      49305.626      10.095169      53.017269    
      4700   0              1524.8539     -609.64082      49289.81       10.095441      52.99397     
      4710   0              54.700578     -609.65207      49284.148      10.095649      52.981869    
      4720   0              171.75815     -609.66555      49273.856      10.095866      52.967879    
      4730   0             -760.83823     -609.67303      49269.795      10.095955      52.961006    
      4740   0              277.97218     -609.7165       49220.849      10.097054      52.880817    
      4750   0             -99.402844     -609.73934      49178.641      10.098077      52.816847    
      4760   0              141.57467     -609.74099      49175.363      10.098119      52.811446    
      4770   0              174.92652     -609.74376      49171.755      10.09818       52.805762    
      4780   0             -69.786456     -609.74501      49170.582      10.098214      52.803968    
      4790   0             -30.904669     -609.74627      49168.706      10.098247      52.801109    
      4800   0              94.521871     -609.74717      49167.155      10.098271      52.798812    
      4810   0             -251.83803     -609.74804      49166.374      10.098296      52.797134    
      4820   0             -17.494405     -609.74961      49161.962      10.098401      52.78895     
      4830   0              107.04123     -609.75011      49160.704      10.098429      52.787147    
      4833   0              20.399307     -609.75016      49160.757      10.09843       52.787102    
Loop time of 0.954232 on 6 procs for 4833 steps with 256 atoms

596.4% CPU use with 1 MPI tasks x 6 OpenMP threads

Minimization stats:
  Stopping criterion = energy tolerance
  Energy initial, next-to-last, final = 
      275363.663693512  -609.750161843676  -609.750161851058
  Force two-norm initial, final = 462869.18 1.2940241
  Force max component initial, final = 415129.15 0.27011874
  Final line search alpha, max atom move = 2.2468306e-05 6.0691105e-06
  Iterations, force evaluations = 4833 5546

MPI task timing breakdown:
Section |  min time  |  avg time  |  max time  |%varavg| %total
---------------------------------------------------------------
Pair    | 0.73892    | 0.73892    | 0.73892    |   0.0 | 77.44
Neigh   | 0.0061147  | 0.0061147  | 0.0061147  |   0.0 |  0.64
Comm    | 0.027535   | 0.027535   | 0.027535   |   0.0 |  2.89
Output  | 0.0050764  | 0.0050764  | 0.0050764  |   0.0 |  0.53
Modify  | 0.034637   | 0.034637   | 0.034637   |   0.0 |  3.63
Other   |            | 0.1419     |            |       | 14.88

Nlocal:            256 ave         256 max         256 min
Histogram: 1 0 0 0 0 0 0 0 0 0
Nghost:            644 ave         644 max         644 min
Histogram: 1 0 0 0 0 0 0 0 0 0
Neighs:              0 ave           0 max           0 min
Histogram: 1 0 0 0 0 0 0 0 0 0
FullNghs:         4864 ave        4864 max        4864 min
Histogram: 1 0 0 0 0 0 0 0 0 0

Total # of neighbors = 4864
Ave neighs/atom = 19
Neighbor list builds = 94
Dangerous builds = 0
Switching to 'neigh_modify every 1 delay 0 check yes' setting during minimization
Last active /omp style is pair_style tersoff/omp
Setting up sd style minimization ...
  Unit style    : metal
  Current step  : 4833
WARNING: Energy due to 3 extra global DOFs will be included in minimizer energies
 (src/min.cpp:219)
Per MPI rank memory allocation (min/avg/max) = 8.696 | 8.696 | 8.696 Mbytes
   Step          Temp          Press          TotEng         Volume         Cella          Cellc     
      4833   0              20.399307     -609.75016      49160.757      10.09843       52.787102    
      4840   0             -15.111457     -609.75017      49160.798      10.09843       52.787068    
      4850   0             -11.773654     -609.75018      49160.771      10.09843       52.786979    
      4860   0             -9.3946284     -609.75019      49160.744      10.09843       52.786893    
      4870   0             -7.639338      -609.75019      49160.719      10.09843       52.786808    
      4880   0             -6.3267421     -609.7502       49160.694      10.098431      52.786724    
      4890   0             -5.3431755     -609.75021      49160.669      10.098431      52.786643    
      4900   0             -4.6066276     -609.75021      49160.644      10.098431      52.786565    
      4910   0             -4.0518417     -609.75022      49160.619      10.098431      52.786489    
      4920   0             -3.6255779     -609.75023      49160.594      10.098432      52.786417    
      4930   0             -3.2862947     -609.75023      49160.569      10.098432      52.786347    
      4940   0             -3.0043618     -609.75024      49160.543      10.098432      52.78628     
      4950   0             -2.7609599     -609.75025      49160.515      10.098433      52.786214    
      4960   0             -2.5456642     -609.75026      49160.486      10.098433      52.786148    
      4970   0             -2.3535106     -609.75027      49160.454      10.098434      52.786081    
      4980   0             -2.1823247     -609.75028      49160.419      10.098435      52.78601     
      4990   0             -2.0307958     -609.75029      49160.38       10.098436      52.785933    
      5000   0             -1.8974591     -609.75031      49160.337      10.098437      52.785849    
      5010   0             -1.7804428     -609.75032      49160.288      10.098438      52.785755    
      5020   0             -1.6776475     -609.75034      49160.233      10.098439      52.78565     
      5030   0             -1.5870162     -609.75037      49160.172      10.098441      52.785533    
      5040   0             -1.5067116     -609.75039      49160.104      10.098443      52.785403    
      5050   0             -1.435174      -609.75042      49160.029      10.098444      52.785259    
      5060   0             -1.3711052     -609.75045      49159.947      10.098447      52.785101    
      5070   0             -1.3134282     -609.75048      49159.858      10.098449      52.78493     
      5080   0             -1.2612471     -609.75052      49159.762      10.098452      52.784744    
      5090   0             -1.2138136     -609.75055      49159.658      10.098454      52.784543    
      5100   0             -1.1705        -609.75059      49159.547      10.098457      52.784329    
      5110   0             -1.1307783     -609.75064      49159.43       10.098461      52.784101    
      5120   0             -1.0942019     -609.75068      49159.305      10.098464      52.783859    
      5130   0             -1.0603917     -609.75073      49159.174      10.098467      52.783603    
      5140   0             -1.0290252     -609.75078      49159.037      10.098471      52.783335    
      5150   0             -0.9998262     -609.75083      49158.893      10.098475      52.783054    
      5160   0             -0.97255761    -609.75089      49158.744      10.098479      52.782761    
      5170   0             -0.94701507    -609.75095      49158.589      10.098483      52.782457    
      5180   0             -0.92302247    -609.75101      49158.43       10.098488      52.782142    
      5190   0             -0.90042696    -609.75107      49158.265      10.098492      52.781817    
      5200   0             -0.87909541    -609.75113      49158.097      10.098497      52.781484    
      5210   0             -0.8589121     -609.75119      49157.925      10.098502      52.781141    
      5220   0             -0.83977525    -609.75126      49157.75       10.098506      52.780791    
      5230   0             -0.82159584    -609.75133      49157.572      10.098511      52.780434    
      5240   0             -0.804295      -609.75139      49157.391      10.098516      52.780071    
      5250   0             -0.78780334    -609.75146      49157.209      10.098521      52.779702    
      5260   0             -0.77205886    -609.75153      49157.025      10.098527      52.779328    
      5270   0             -0.75700613    -609.7516       49156.839      10.098532      52.778951    
      5280   0             -0.74259568    -609.75167      49156.653      10.098537      52.77857     
      5290   0             -0.72878275    -609.75175      49156.467      10.098542      52.778186    
      5300   0             -0.71552682    -609.75182      49156.28       10.098548      52.777801    
      5310   0             -0.70279097    -609.75189      49156.094      10.098553      52.777414    
      5320   0             -0.69054156    -609.75196      49155.908      10.098559      52.777026    
      5330   0             -0.67874759    -609.75204      49155.723      10.098564      52.776638    
      5340   0             -0.66738019    -609.75211      49155.539      10.098569      52.77625     
      5350   0             -0.65641283    -609.75218      49155.357      10.098575      52.775863    
      5360   0             -0.64582081    -609.75226      49155.177      10.09858       52.775477    
      5370   0             -0.63558097    -609.75233      49154.998      10.098585      52.775093    
      5380   0             -0.62567165    -609.75241      49154.822      10.098591      52.77471     
      5390   0             -0.61607222    -609.75248      49154.647      10.098596      52.77433     
      5400   0             -0.6067635     -609.75255      49154.475      10.098601      52.773952    
      5410   0             -0.59772711    -609.75263      49154.306      10.098606      52.773577    
      5420   0             -0.58894578    -609.7527       49154.14       10.098611      52.773206    
      5430   0             -0.58040327    -609.75277      49153.976      10.098617      52.772837    
      5440   0             -0.57208367    -609.75284      49153.815      10.098622      52.772472    
      5450   0             -0.56397232    -609.75292      49153.657      10.098627      52.772111    
      5460   0             -0.55605503    -609.75299      49153.502      10.098632      52.771753    
      5470   0             -0.54831846    -609.75306      49153.35       10.098636      52.771399    
      5480   0             -0.54074991    -609.75313      49153.202      10.098641      52.771049    
      5490   0             -0.53333724    -609.7532       49153.056      10.098646      52.770703    
      5500   0             -0.52606869    -609.75327      49152.914      10.098651      52.770361    
      5510   0             -0.51893369    -609.75335      49152.775      10.098656      52.770023    
      5520   0             -0.51192177    -609.75342      49152.639      10.09866       52.769689    
      5530   0             -0.50502307    -609.75349      49152.506      10.098665      52.769359    
      5540   0             -0.49822836    -609.75356      49152.377      10.098669      52.769033    
      5550   0             -0.49152891    -609.75363      49152.251      10.098674      52.768711    
      5560   0             -0.48491624    -609.7537       49152.128      10.098678      52.768393    
      5570   0             -0.47838263    -609.75377      49152.009      10.098682      52.768079    
      5580   0             -0.4719207     -609.75384      49151.892      10.098687      52.767769    
      5590   0             -0.46552333    -609.75391      49151.779      10.098691      52.767463    
      5600   0             -0.45918411    -609.75398      49151.669      10.098695      52.76716     
      5610   0             -0.4528968     -609.75405      49151.562      10.098699      52.766861    
      5620   0             -0.44665546    -609.75413      49151.459      10.098703      52.766566    
      5630   0             -0.44045471    -609.7542       49151.359      10.098707      52.766274    
      5640   0             -0.43428947    -609.75427      49151.261      10.098711      52.765986    
      5650   0             -0.42815476    -609.75434      49151.167      10.098715      52.765701    
      5660   0             -0.42204599    -609.75441      49151.077      10.098719      52.765419    
      5670   0             -0.41595882    -609.75449      49150.989      10.098723      52.765141    
      5680   0             -0.40988935    -609.75456      49150.905      10.098727      52.764866    
      5690   0             -0.40383348    -609.75463      49150.824      10.098731      52.764594    
      5700   0             -0.39778784    -609.75471      49150.746      10.098734      52.764325    
      5710   0             -0.39174878    -609.75478      49150.671      10.098738      52.764059    
      5720   0             -0.38571293    -609.75486      49150.6        10.098742      52.763795    
      5730   0             -0.37967729    -609.75493      49150.532      10.098745      52.763535    
      5740   0             -0.37363881    -609.75501      49150.467      10.098749      52.763278    
      5750   0             -0.36759456    -609.75509      49150.406      10.098752      52.763023    
      5760   0             -0.36154164    -609.75517      49150.348      10.098756      52.76277     
      5770   0             -0.35547755    -609.75525      49150.294      10.098759      52.762521    
      5780   0             -0.34939935    -609.75533      49150.243      10.098763      52.762273    
      5790   0             -0.34330452    -609.75541      49150.197      10.098766      52.762029    
      5800   0             -0.33719067    -609.7555       49150.153      10.09877       52.761786    
      5810   0             -0.33105507    -609.75558      49150.114      10.098773      52.761546    
      5820   0             -0.32489527    -609.75567      49150.079      10.098776      52.761309    
      5830   0             -0.31870872    -609.75576      49150.048      10.098779      52.761073    
      5840   0             -0.31249336    -609.75585      49150.021      10.098783      52.76084     
      5850   0             -0.30628477    -609.75594      49149.998      10.098786      52.760609    
      5860   0             -0.30433505    -609.75603      49149.98       10.098789      52.760381    
      5870   0             -0.3800722     -609.75611      49149.97       10.098792      52.760198    
      5880   0             -0.37426254    -609.75617      49149.964      10.098793      52.760064    
      5890   0             -0.35973526    -609.75623      49149.959      10.098795      52.759925    
      5900   0             -0.34621918    -609.7563       49149.957      10.098797      52.75978     
      5910   0             -0.33365965    -609.75637      49149.957      10.098799      52.759629    
      5920   0             -0.32192222    -609.75644      49149.96       10.098802      52.759472    
      5930   0             -0.31091031    -609.75652      49149.966      10.098804      52.759311    
      5940   0             -0.30108989    -609.75661      49149.975      10.098806      52.759145    
      5950   0             -0.313925      -609.75669      49149.989      10.098808      52.758981    
      5960   0             -0.36113427    -609.75676      49150.001      10.09881       52.758858    
      5970   0             -0.34655918    -609.75682      49150.015      10.098812      52.758748    
      5980   0             -0.33037119    -609.75688      49150.031      10.098813      52.75863     
      5990   0             -0.31550661    -609.75696      49150.051      10.098815      52.758505    
      6000   0             -0.30256771    -609.75703      49150.075      10.098817      52.758375    
      6010   0             -0.30437485    -609.75712      49150.103      10.098819      52.758241    
      6020   0             -0.3479619     -609.75718      49150.129      10.09882       52.758131    
      6030   0             -0.3367425     -609.75725      49150.154      10.098822      52.758035    
      6040   0             -0.31958928    -609.75731      49150.182      10.098823      52.757934    
      6050   0             -0.30445762    -609.75739      49150.215      10.098824      52.757826    
      6060   0             -0.30111051    -609.75747      49150.252      10.098826      52.757713    
      6070   0             -0.33689941    -609.75754      49150.288      10.098827      52.757615    
      6080   0             -0.3304054     -609.7576       49150.321      10.098829      52.75753     
      6090   0             -0.3133451     -609.75767      49150.358      10.09883       52.75744     
      6100   0             -0.30004695    -609.75774      49150.4        10.098831      52.757345    
      6110   0             -0.3124677     -609.75782      49150.445      10.098832      52.757251    
      6120   0             -0.33116273    -609.75788      49150.486      10.098833      52.757171    
      6130   0             -0.31713004    -609.75795      49150.527      10.098835      52.757094    
      6140   0             -0.30226441    -609.75802      49150.573      10.098836      52.757012    
      6150   0             -0.30425319    -609.75809      49150.624      10.098837      52.756928    
      6160   0             -0.32600412    -609.75816      49150.671      10.098838      52.756854    
      6170   0             -0.31634015    -609.75822      49150.717      10.098839      52.756785    
      6180   0             -0.30213913    -609.75829      49150.768      10.09884       52.756712    
      6190   0             -0.30349779    -609.75837      49150.824      10.098841      52.756638    
      6200   0             -0.32142907    -609.75844      49150.876      10.098842      52.756571    
      6210   0             -0.31274163    -609.7585       49150.927      10.098843      52.756509    
      6220   0             -0.30043423    -609.75857      49150.983      10.098844      52.756443    
      6230   0             -0.30563991    -609.75864      49151.042      10.098844      52.756378    
      6240   0             -0.31767174    -609.75871      49151.098      10.098845      52.756319    
      6250   0             -0.30772902    -609.75878      49151.154      10.098846      52.756262    
      6260   0             -0.29899334    -609.75885      49151.215      10.098847      52.756203    
      6270   0             -0.30925809    -609.75892      49151.277      10.098848      52.756145    
      6280   0             -0.31304333    -609.75898      49151.335      10.098848      52.756093    
      6290   0             -0.30247339    -609.75905      49151.396      10.098849      52.75604     
      6300   0             -0.30017187    -609.75912      49151.461      10.09885       52.755987    
      6310   0             -0.3112714     -609.75919      49151.525      10.098851      52.755937    
      6320   0             -0.30711711    -609.75926      49151.587      10.098851      52.75589     
      6330   0             -0.29884486    -609.75933      49151.653      10.098852      52.755841    
      6340   0             -0.30454107    -609.7594       49151.721      10.098853      52.755794    
      6350   0             -0.30904489    -609.75946      49151.786      10.098853      52.75575     
      6360   0             -0.30120191    -609.75953      49151.853      10.098854      52.755707    
      6370   0             -0.29943213    -609.7596       49151.923      10.098854      52.755663    
      6380   0             -0.3074119     -609.75967      49151.992      10.098855      52.755622    
      6390   0             -0.30365563    -609.75974      49152.06       10.098856      52.755582    
      6400   0             -0.29811822    -609.75981      49152.131      10.098856      52.755543    
      6410   0             -0.30353124    -609.75987      49152.202      10.098857      52.755504    
      6420   0             -0.30492405    -609.75994      49152.272      10.098857      52.755467    
      6430   0             -0.29867153    -609.76001      49152.344      10.098858      52.755431    
      6440   0             -0.30018518    -609.76008      49152.418      10.098858      52.755395    
      6450   0             -0.30449045    -609.76015      49152.491      10.098859      52.755361    
      6460   0             -0.29983786    -609.76021      49152.564      10.098859      52.755328    
      6470   0             -0.29807499    -609.76028      49152.639      10.09886       52.755295    
      6480   0             -0.30307022    -609.76035      49152.714      10.09886       52.755263    
      6490   0             -0.30063925    -609.76042      49152.788      10.09886       52.755233    
      6500   0             -0.29733186    -609.76049      49152.864      10.098861      52.755203    
      6510   0             -0.30108244    -609.76056      49152.941      10.098861      52.755173    
      6520   0             -0.30103567    -609.76062      49153.017      10.098862      52.755145    
      6530   0             -0.29712086    -609.76069      49153.094      10.098862      52.755117    
      6540   0             -0.29944771    -609.76076      49153.172      10.098863      52.75509     
      6550   0             -0.30078697    -609.76083      49153.25       10.098863      52.755064    
      6560   0             -0.29731631    -609.7609       49153.328      10.098863      52.755038    
      6570   0             -0.29802427    -609.76097      49153.408      10.098864      52.755013    
      6580   0             -0.30033011    -609.76103      49153.486      10.098864      52.754989    
      6590   0             -0.29739595    -609.7611       49153.566      10.098864      52.754966    
      6600   0             -0.29719038    -609.76117      49153.646      10.098865      52.754942    
      6610   0             -0.29951959    -609.76124      49153.726      10.098865      52.75492     
      6620   0             -0.2975376     -609.76131      49153.807      10.098865      52.754898    
      6630   0             -0.29648076    -609.76137      49153.888      10.098866      52.754877    
      6640   0             -0.29884334    -609.76144      49153.969      10.098866      52.754856    
      6650   0             -0.29741437    -609.76151      49154.051      10.098866      52.754836    
      6660   0             -0.29615848    -609.76158      49154.133      10.098866      52.754816    
      6670   0             -0.29801834    -609.76165      49154.215      10.098867      52.754797    
      6680   0             -0.29734829    -609.76171      49154.298      10.098867      52.754779    
      6690   0             -0.29577806    -609.76178      49154.381      10.098867      52.75476     
      6700   0             -0.29747009    -609.76185      49154.464      10.098867      52.754743    
      6710   0             -0.2970393     -609.76192      49154.547      10.098868      52.754725    
      6720   0             -0.29564676    -609.76199      49154.631      10.098868      52.754709    
      6730   0             -0.2968138     -609.76205      49154.715      10.098868      52.754692    
      6740   0             -0.29685726    -609.76212      49154.799      10.098868      52.754676    
      6750   0             -0.29536581    -609.76219      49154.883      10.098869      52.754661    
      6760   0             -0.29644616    -609.76226      49154.968      10.098869      52.754646    
      6770   0             -0.29647058    -609.76233      49155.053      10.098869      52.754631    
      6780   0             -0.29528635    -609.76239      49155.138      10.098869      52.754616    
      6790   0             -0.29594715    -609.76246      49155.224      10.09887       52.754602    
      6800   0             -0.296265      -609.76253      49155.309      10.09887       52.754589    
      6810   0             -0.29502444    -609.7626       49155.395      10.09887       52.754575    
      6820   0             -0.29571576    -609.76267      49155.481      10.09887       52.754562    
      6830   0             -0.29587268    -609.76273      49155.567      10.09887       52.75455     
      6840   0             -0.29495815    -609.7628       49155.653      10.09887       52.754538    
      6850   0             -0.29532362    -609.76287      49155.74       10.098871      52.754525    
      6860   0             -0.29568959    -609.76294      49155.827      10.098871      52.754514    
      6870   0             -0.29469898    -609.76301      49155.914      10.098871      52.754502    
      6880   0             -0.29518053    -609.76307      49156.001      10.098871      52.754491    
      6890   0             -0.29532203    -609.76314      49156.088      10.098871      52.75448     
      6900   0             -0.29464269    -609.76321      49156.175      10.098871      52.75447     
      6910   0             -0.29485498    -609.76328      49156.263      10.098872      52.75446     
      6920   0             -0.2951759     -609.76335      49156.351      10.098872      52.75445     
      6930   0             -0.29438891    -609.76341      49156.438      10.098872      52.75444     
      6940   0             -0.29476799    -609.76348      49156.526      10.098872      52.75443     
      6950   0             -0.29484029    -609.76355      49156.614      10.098872      52.754421    
      6960   0             -0.29434691    -609.76362      49156.703      10.098872      52.754412    
      6970   0             -0.29448403    -609.76369      49156.791      10.098873      52.754403    
      6980   0             -0.29473145    -609.76375      49156.88       10.098873      52.754394    
      6990   0             -0.29410327    -609.76382      49156.968      10.098873      52.754386    
      7000   0             -0.29443379    -609.76389      49157.057      10.098873      52.754378    
      7010   0             -0.29442649    -609.76396      49157.146      10.098873      52.75437     
      7020   0             -0.29407863    -609.76403      49157.235      10.098873      52.754362    
      7030   0             -0.29417716    -609.76409      49157.324      10.098873      52.754354    
      7040   0             -0.29435057    -609.76416      49157.413      10.098873      52.754347    
      7050   0             -0.29384797    -609.76423      49157.503      10.098874      52.75434     
      7060   0             -0.29415224    -609.7643       49157.592      10.098874      52.754333    
      7070   0             -0.29407216    -609.76437      49157.682      10.098874      52.754326    
      7080   0             -0.29384178    -609.76443      49157.771      10.098874      52.754319    
      7090   0             -0.29391401    -609.7645       49157.861      10.098874      52.754313    
      7100   0             -0.29402454    -609.76457      49157.951      10.098874      52.754306    
      7110   0             -0.29362454    -609.76464      49158.041      10.098874      52.7543      
      7120   0             -0.29390739    -609.76471      49158.131      10.098874      52.754294    
      7130   0             -0.29376889    -609.76477      49158.221      10.098874      52.754288    
      7140   0             -0.29363563    -609.76484      49158.311      10.098874      52.754282    
      7150   0             -0.2936824     -609.76491      49158.402      10.098875      52.754277    
      7160   0             -0.29374557    -609.76498      49158.492      10.098875      52.754271    
      7170   0             -0.29343086    -609.76504      49158.582      10.098875      52.754266    
      7180   0             -0.2936896     -609.76511      49158.673      10.098875      52.754261    
      7190   0             -0.29351212    -609.76518      49158.763      10.098875      52.754255    
      7200   0             -0.29346476    -609.76525      49158.854      10.098875      52.754251    
      7210   0             -0.29347332    -609.76532      49158.945      10.098875      52.754246    
      7220   0             -0.29352408    -609.76538      49159.036      10.098875      52.754241    
      7230   0             -0.29324256    -609.76545      49159.126      10.098875      52.754236    
      7240   0             -0.29350294    -609.76552      49159.217      10.098875      52.754232    
      7250   0             -0.29328839    -609.76559      49159.308      10.098875      52.754227    
      7260   0             -0.29326747    -609.76566      49159.399      10.098876      52.754223    
      7270   0             -0.29328928    -609.76572      49159.49       10.098876      52.754219    
      7280   0             -0.29330452    -609.76579      49159.582      10.098876      52.754215    
      7290   0             -0.29305219    -609.76586      49159.673      10.098876      52.754211    
      7300   0             -0.29332989    -609.76593      49159.764      10.098876      52.754207    
      7310   0             -0.29308061    -609.76599      49159.855      10.098876      52.754203    
      7320   0             -0.29309144    -609.76606      49159.947      10.098876      52.7542      
      7330   0             -0.29312681    -609.76613      49160.038      10.098876      52.754196    
      7340   0             -0.29310686    -609.7662       49160.13       10.098876      52.754193    
      7350   0             -0.29288954    -609.76627      49160.221      10.098876      52.754189    
      7360   0             -0.29317596    -609.76633      49160.313      10.098876      52.754186    
      7370   0             -0.29289332    -609.7664       49160.404      10.098876      52.754183    
      7380   0             -0.29294104    -609.76647      49160.496      10.098876      52.754179    
      7390   0             -0.29298118    -609.76654      49160.588      10.098876      52.754176    
      7400   0             -0.2929284     -609.76661      49160.679      10.098876      52.754173    
      7410   0             -0.2927507     -609.76667      49160.771      10.098877      52.75417     
      7420   0             -0.29303695    -609.76674      49160.863      10.098877      52.754168    
      7430   0             -0.29272367    -609.76681      49160.955      10.098877      52.754165    
      7440   0             -0.29281284    -609.76688      49161.047      10.098877      52.754162    
      7450   0             -0.29284868    -609.76694      49161.139      10.098877      52.754159    
      7460   0             -0.29276686    -609.76701      49161.231      10.098877      52.754157    
[...]
     16582   0             -613.93138     -1043.9961      55.024288     -2411.399      -775.61374     -0.018164652   -0.011695895   -1546.2301      10.096177      101.32096      46.307165      47370.118    
     16583   0             -613.93813     -854.6395       54.48434      -2054.8692     -563.53361     -0.025542959   -0.017413534   -1268.3081      10.096177      101.32096      46.307165      47370.118    
     16584   0             -613.94441     -693.49669      53.945107     -1751.2951     -383.14004     -0.016846588   -0.010689113   -1031.3702      10.096177      101.32096      46.307165      47370.118    
     16585   0             -613.95135     -720.19218      53.291767     -1800.4881     -413.38026     -0.013627476   -0.0081807973  -1067.1228      10.096177      101.32096      46.307165      47370.118    
     16586   0             -613.95625     -676.09519      52.793282     -1716.6929     -364.38596     -0.025561629   -0.017381036   -1000.5233      10.096177      101.32096      46.307165      47370.118    
     16587   0             -613.96144     -487.74778      52.252804     -1361.772      -153.72415     -0.018891535   -0.012203518   -724.54131      10.096177      101.32096      46.307165      47370.118    
     16588   0             -613.96557     -457.0893       51.727007     -1303.0162     -119.97866     -0.01637515    -0.010297728   -677.66031      10.096177      101.32096      46.307165      47370.118    
     16589   0             -613.96973     -494.37849      51.177695     -1371.9749     -162.33822     -0.016868554   -0.010699909   -729.54468      10.096177      101.32096      46.307165      47370.118    
     16590   0             -613.97224     -426.65941      50.805673     -1243.8484     -86.93554      -0.018549653   -0.011991339   -629.60036      10.096177      101.32096      46.307165      47370.118    
     16591   0             -613.97443     -228.9206       50.422901     -871.30784      134.12315     -0.012200034   -0.0070721517  -340.75303      10.096177      101.32096      46.307165      47370.118    
     16592   0             -613.97606     -47.496322      49.934088     -528.74132      336.31827     -0.0045051846  -0.0011518343  -75.111875      10.096177      101.32096      46.307165      47370.118    
     16593   0             -613.97607     -17.563034      49.904349     -472.37004      369.77659     -0.0037158818  -0.00054440342 -31.507301      10.096177      101.32096      46.307165      47370.118    
     16594   0             -613.97879     -308.97171      49.549355     -1019.4539      42.989362     -0.0081204429  -0.0039536426  -454.13538      10.096177      101.32096      46.307165      47370.118    
     16595   0             -613.97949     -260.35326      49.309601     -927.38249      97.013106     -0.013145939   -0.0078540874  -382.64905      10.096177      101.32096      46.307165      47370.118    
     16596   0             -613.97999     -72.153686      48.909104     -572.31854      306.94838     -0.02085122    -0.013837619   -107.81438      10.096177      101.32096      46.307165      47370.118    
     16597   0             -613.98028     -95.168255      48.836205     -615.36753      281.02656     -0.020558008   -0.013611709   -141.02879      10.096177      101.32096      46.307165      47370.118    
     16598   0             -613.98108     -210.82044      48.719909     -832.47487      151.29364     -0.017521218   -0.011256662   -308.76452      10.096177      101.32096      46.307165      47370.118    
     16599   0             -613.98157     -282.90994      48.637136     -967.75165      70.384689     -0.015329025   -0.0095593862  -413.24647      10.096177      101.32096      46.307165      47370.118    
     16600   0             -613.98209     -305.41597      48.526228     -1009.7601      44.985969     -0.011951991   -0.0069494523  -445.60735      10.096177      101.32096      46.307165      47370.118    
     16601   0             -613.98255     -186.05698      48.347131     -784.90035      178.38228     -0.0099771903  -0.0054299379  -271.67301      10.096177      101.32096      46.307165      47370.118    
     16602   0             -614.01971      621.8549       6.9118265      869.30006      989.35282     -0.028786249   -0.020912184    1031.9646      10.096177      101.32096      46.307165      47370.118    
     16603   0             -614.02444      398.75198      3.4177985      461.34773      731.49041     -0.023730912   -0.017010373    717.2545       10.096177      101.32096      46.307165      47370.118    
     16604   0             -614.0307      -466.17265      2.7725826     -1159.9179     -241.37261     -0.0061772338  -0.0033294449  -539.39549      10.096177      101.32096      46.307165      47370.118    
     16605   0             -614.03189     -401.70528      2.8643705     -1039.1638     -168.81644     -0.0070760602  -0.0040233224  -446.16805      10.096177      101.32096      46.307165      47370.118    
     16606   0             -614.03322     -269.48471      2.9723464     -791.44644     -19.980036     -0.0069228744  -0.0039002062  -254.39377      10.096177      101.32096      46.307165      47370.118    
     16607   0             -614.03444     -168.85752      3.1074026     -602.90399      93.224036     -0.0073479389  -0.0042247319  -108.75094      10.096177      101.32096      46.307165      47370.118    
     16608   0             -614.03554     -225.99769      3.208029      -710.14654      28.945454     -0.0077344135  -0.0045221368  -192.30326      10.096177      101.32096      46.307165      47370.118    
     16609   0             -614.0367      -257.80949      3.3588846     -769.96652     -6.8208191     -0.0070677444  -0.0040114473  -239.41419      10.096177      101.32096      46.307165      47370.118    
     16610   0             -614.03744     -246.61257      3.4783109     -749.09073      5.7746929     -0.0059530909  -0.0031458246  -223.79353      10.096177      101.32096      46.307165      47370.118    
     16611   0             -614.03892     -394.24301      3.5995942     -1025.9778     -160.35084     -0.0065196959  -0.0035760977  -439.08831      10.096177      101.32096      46.307165      47370.118    
     16612   0             -614.04018     -297.97949      3.70209       -845.6303      -52.010267     -0.0069289284  -0.003888418   -299.70978      10.096177      101.32096      46.307165      47370.118    
     16613   0             -614.04121     -235.94413      3.8051727     -729.45545      17.817902     -0.006139205   -0.0032672738  -210.06762      10.096177      101.32096      46.307165      47370.118    
     16614   0             -614.04173     -204.77655      3.9442756     -671.09175      52.81781      -0.0077967697  -0.0045456164  -165.4508       10.096177      101.32096      46.307165      47370.118    
     16615   0             -614.04246     -210.96551      4.0736438     -682.79716      45.826976     -0.0078620051  -0.0045903587  -175.16333      10.096177      101.32096      46.307165      47370.118    
     16616   0             -614.04249     -115.52611      4.2709015     -504.04804      153.1988      -0.0035998054  -0.0012891045  -37.403578      10.096177      101.32096      46.307165      47370.118    
     16617   0             -614.04249     -114.14432      4.276334      -501.45985      154.75057     -0.0036085399  -0.0012959403  -35.424884      10.096177      101.32096      46.307165      47370.118    
     16618   0             -614.04264     -330.87517      4.3719748     -907.7358      -89.26169      -0.010517439   -0.0066480789  -351.09585      10.096177      101.32096      46.307165      47370.118    
     16619   0             -614.04278     -240.22986      4.483428      -737.83916      12.666158     -0.010648994   -0.0067452691  -220.00574      10.096177      101.32096      46.307165      47370.118    
     16620   0             -614.04382     -335.1317       4.6407408     -915.92854     -94.107309     -0.00330765    -0.0010441135  -358.80151      10.096177      101.32096      46.307165      47370.118    
     16621   0             -614.04441     -214.90353      4.7705436     -690.64151      41.160375     -0.003572723   -0.0012492538  -184.74162      10.096177      101.32096      46.307165      47370.118    
     16622   0             -614.04547     -240.29628      4.9065682     -738.35289      12.55747      -0.0081730486  -0.004818727   -222.43943      10.096177      101.32096      46.307165      47370.118    
     16623   0             -614.04561     -204.67802      4.9388597     -671.58991      52.616993     -0.0087264453  -0.0052477722  -170.86802      10.096177      101.32096      46.307165      47370.118    
     16624   0             -614.04575     -206.081        4.9363473     -674.21587      51.036531     -0.0084031789  -0.0049963595  -172.9459       10.096177      101.32096      46.307165      47370.118    
     16625   0             -614.04584     -207.12641      4.9377747     -676.17467      49.857658     -0.0081618736  -0.0048086814  -174.5044       10.096177      101.32096      46.307165      47370.118    
     16626   0             -614.04593     -208.41805      4.9440122     -678.59767      48.399504     -0.0078628655  -0.0045760845  -176.44523      10.096177      101.32096      46.307165      47370.118    
     16627   0             -614.04599     -207.5921       4.9506626     -677.05289      49.325912     -0.0076945739  -0.0044451287  -175.29314      10.096177      101.32096      46.307165      47370.118    
     16628   0             -614.04605     -197.7181       4.9636411     -658.55273      60.434772     -0.0073328371  -0.0041640034  -161.02983      10.096177      101.32096      46.307165      47370.118    
     16629   0             -614.04611     -185.71689      4.9940001     -636.07449      73.929827     -0.0068944296  -0.0038229697  -143.76574      10.096177      101.32096      46.307165      47370.118    
     16630   0             -614.04708      215.36935      8.5373452      113.78725      523.78346     -0.00084717474  0.00096032573  420.63677      10.096177      101.32096      46.307165      47370.118    
     16631   0             -614.05125      924.95038      22.207122      1435.0156      1317.6284      0.0070438284   0.0074521024   1379.2654      10.096177      101.32096      46.307165      47370.118    
     16632   0             -614.12454     -317.44838      120.38766     -937.63547     -135.09733     -0.0078243924  -0.0012328648  -1020.1718      10.096177      101.32096      46.307165      47370.118    
     16633   0             -614.12475      885.05418      140.4518       1284.6687      1230.042       0.011048468    0.014242194    612.60307      10.096177      101.32096      46.307165      47370.118    
     16634   0             -614.12799      566.78363      149.32485      688.30906      862.71697      0.0014341548   0.0070020534   92.470176      10.096177      101.32096      46.307165      47370.118    
     16635   0             -614.12833     -868.0279       147.65176     -1971.8632     -779.87222     -0.01936497    -0.0093278739  -1990.8679      10.096177      101.32096      46.307165      47370.118    
     16636   0             -614.13253     -985.69421      146.69374     -2189.5438     -914.2326      -0.019787628   -0.0096806124  -2157.2305      10.096177      101.32096      46.307165      47370.118    
     16637   0             -614.14305     -1347.1013      145.60336     -2859.7748     -1327.1325     -0.032812781   -0.01991856    -2677.1586      10.096177      101.32096      46.307165      47370.118    
     16638   0             -614.15132     -244.84545      144.86521     -815.27285     -64.128712     -0.017628001   -0.0079938662  -1063.5729      10.096177      101.32096      46.307165      47370.118    
     16639   0             -614.15858      329.61447      143.98676      250.33542      594.52124     -0.0048774505   0.0020287189  -219.76021      10.096177      101.32096      46.307165      47370.118    
     16640   0             -614.15904      575.21097      143.10701      706.14449      876.38139      0.0038159127   0.0088731073   145.86731      10.096177      101.32096      46.307165      47370.118    
     16641   0             -614.16423     -127.78731      142.42703     -597.28279      71.493829     -0.0098555223  -0.0018767481  -877.64334      10.096177      101.32096      46.307165      47370.118    
     16642   0             -614.1665      -202.25691      142.07853     -735.20064     -13.648605     -0.012479831   -0.0039414958  -984.75007      10.096177      101.32096      46.307165      47370.118    
     16643   0             -614.16832      339.01488      141.46067      269.02676      606.55721     -0.0027732368   0.003689619   -190.89381      10.096177      101.32096      46.307165      47370.118    
     16644   0             -614.17128      427.92216      140.34625      434.51522      708.90501     -0.00075805699  0.0052832723  -54.121345      10.096177      101.32096      46.307165      47370.118    
     16645   0             -614.17138      237.67032      138.42226      82.918166      491.67052     -0.0026041073   0.0038649263  -319.43228      10.096177      101.32096      46.307165      47370.118    
     16646   0             -614.17183      205.7226       137.93419      24.017908      455.21569     -0.0032227064   0.0033831361  -363.20133      10.096177      101.32096      46.307165      47370.118    
     16647   0             -614.17516     -478.07562      136.77239     -1243.2706     -327.72867     -0.028368637   -0.016405957   -1354.2298      10.096177      101.32096      46.307165      47370.118    
     16648   0             -614.17585      242.95982      136.28193      94.12806       498.46947     -0.010744189   -0.0025544161  -299.13145      10.096177      101.32096      46.307165      47370.118    
     16649   0             -614.18076     -179.8267       134.69472     -688.93295      14.758128     -0.0078036204  -0.0002423166  -906.31736      10.096177      101.32096      46.307165      47370.118    
     16650   0             -614.18638     -474.17743      133.21742     -1234.05       -321.69966     -0.0075491771  -1.5939952e-05 -1326.8308      10.096177      101.32096      46.307165      47370.118    
     16651   0             -614.18967      300.82096      132.2796       203.23536      566.94792     -0.014043693   -0.0051218242  -190.24433      10.096177      101.32096      46.307165      47370.118    
     16652   0             -614.19218      717.42822      131.19053      976.2523       1044.8418     -0.0094577529  -0.0015078824   424.37706      10.096177      101.32096      46.307165      47370.118    
     16653   0             -614.19556     -133.63686      128.57908     -599.82984      70.340191     -0.0061488186   0.0010748646  -801.74245      10.096177      101.32096      46.307165      47370.118    
     16654   0             -614.19845     -318.57463      126.85335     -941.55147     -141.02577     -0.0058263717   0.0013236804  -1061.4627      10.096177      101.32096      46.307165      47370.118    
     16655   0             -614.20268     -37.57008       125.5395      -420.02093      181.77119     -0.016443111   -0.0070333489  -643.48525      10.096177      101.32096      46.307165      47370.118    
     16656   0             -614.20518      333.97679      124.63585      269.09142      608.2031      -0.014400914   -0.0054218695  -95.903917      10.096177      101.32096      46.307165      47370.118    
     16657   0             -614.20532      34.227547      123.34906     -285.71595      265.04953     -8.12529e-05    0.005860119   -524.67016      10.096177      101.32096      46.307165      47370.118    
     16658   0             -614.20924     -373.29636      122.79001     -1040.7732     -201.90595     -0.010419243   -0.0022802591  -1117.128       10.096177      101.32096      46.307165      47370.118    
     16659   0             -614.21008      734.96404      122.38782      1013.4761      1069.0282     -0.0093809408  -0.0014734053   503.2561       10.096177      101.32096      46.307165      47370.118    
     16660   0             -614.212        20.474078      121.88232     -310.48238      250.0223      -0.0096355803  -0.0016627816  -537.17775      10.096177      101.32096      46.307165      47370.118    
     16661   0             -614.21209      406.81354      120.52524      406.32319      693.59219     -0.01023031    -0.0021224725   35.943006      10.096177      101.32096      46.307165      47370.118    
     16662   0             -614.21455      56.137135      119.97441     -243.24255      291.67955     -0.009605163   -0.0016412949  -473.69099      10.096177      101.32096      46.307165      47370.118    
     16663   0             -614.26931     -245.51894      30.865446     -746.72881     -20.693444     -0.01805687    -0.0085952132  -385.55996      10.096177      101.32096      46.307165      47370.118    
     16664   0             -614.27656     -222.83468      23.444737     -700.24511      8.2963474     -0.012869732   -0.0044618355  -312.54936      10.096177      101.32096      46.307165      47370.118    
     16665   0             -614.27757     -110.86959      23.392441     -493.51566      137.51446     -0.0083807703  -0.00090665035 -149.0321       10.096177      101.32096      46.307165      47370.118    
     16666   0             -614.27811     -120.698        23.434115     -512.02601      126.4979      -0.0084389859  -0.00095206436 -163.29956      10.096177      101.32096      46.307165      47370.118    
     16667   0             -614.27852     -216.80806      23.469811     -689.85035      15.956377     -0.011109795   -0.0030632884  -303.51779      10.096177      101.32096      46.307165      47370.118    
     16668   0             -614.27886     -194.93344      23.51578      -649.73944      41.423355     -0.011424013   -0.0033119549  -271.51392      10.096177      101.32096      46.307165      47370.118    
     16669   0             -614.27921      282.1111       23.698324      230.57478      592.06021     -0.0063059218   0.00073304344  424.94774      10.096177      101.32096      46.307165      47370.118    
Loop time of 0.0491117 on 6 procs for 100 steps with 256 atoms

609.0% CPU use with 1 MPI tasks x 6 OpenMP threads

Minimization stats:
  Stopping criterion = max iterations
  Energy initial, next-to-last, final = 
     -613.643707114544  -614.278861787744  -614.279207285708
  Force two-norm initial, final = 2.1254087 4.637262
  Force max component initial, final = 0.26515459 0.83656595
  Final line search alpha, max atom move = 0.0057536346 0.0048132948
  Iterations, force evaluations = 100 340

MPI task timing breakdown:
Section |  min time  |  avg time  |  max time  |%varavg| %total
---------------------------------------------------------------
Pair    | 0.04079    | 0.04079    | 0.04079    |   0.0 | 83.06
Neigh   | 0          | 0          | 0          |   0.0 |  0.00
Comm    | 0.0030658  | 0.0030658  | 0.0030658  |   0.0 |  6.24
Output  | 0.0012393  | 0.0012393  | 0.0012393  |   0.0 |  2.52
Modify  | 0.0021114  | 0.0021114  | 0.0021114  |   0.0 |  4.30
Other   |            | 0.001905   |            |       |  3.88

Nlocal:            256 ave         256 max         256 min
Histogram: 1 0 0 0 0 0 0 0 0 0
Nghost:            644 ave         644 max         644 min
Histogram: 1 0 0 0 0 0 0 0 0 0
Neighs:              0 ave           0 max           0 min
Histogram: 1 0 0 0 0 0 0 0 0 0
FullNghs:         4352 ave        4352 max        4352 min
Histogram: 1 0 0 0 0 0 0 0 0 0

Total # of neighbors = 4352
Ave neighs/atom = 17
Neighbor list builds = 0
Dangerous builds = 0
C11: -912.193230416945
C12: 1246.38673520301
C44: 23547.1660477433
Total wall time: 0:00:12
